EC_B3LYP_6-31ppgd,p_pcm_Water                                           
Freq      RB3LYP                                                      6-31++G(d,p)        
Number of atoms                            I               10
Info1-9                                    I   N=           9
          19          19        1002           0           0         100
           6          18        -502
Full Title                                 C   N=           3
EC_B3LYP_6-31ppgd,p_pcm_Water       
Route                                      C   N=           6
# opt freq B3LYP/6-31++g(d,p) em=gd3bj scrf=(pcm,solvent=Wat
er)         
Charge                                     I                0
Multiplicity                               I                1
Number of electrons                        I               46
Number of alpha electrons                  I               23
Number of beta electrons                   I               23
Number of basis functions                  I              138
Number of independent functions            I              138
Number of point charges in /Mol/           I                0
Number of translation vectors              I                0
Atomic numbers                             I   N=          10
           6           6           8           6           8           8
           1           1           1           1
Nuclear charges                            R   N=          10
  6.00000000E+00  6.00000000E+00  8.00000000E+00  6.00000000E+00  8.00000000E+00
  8.00000000E+00  1.00000000E+00  1.00000000E+00  1.00000000E+00  1.00000000E+00
Current cartesian coordinates              R   N=          30
 -2.48020137E+00 -1.43040880E+00  2.11040230E-01 -2.48020845E+00  1.43040453E+00
 -2.11020516E-01  1.52846055E-01  2.09496394E+00  1.89564172E-01  1.58972418E+00
  5.26813513E-06 -5.06296182E-05  3.87466397E+00 -3.89606611E-08  3.03338714E-05
  1.52848958E-01 -2.09496321E+00 -1.89579978E-01 -3.62371989E+00 -2.46878003E+00
 -1.14768035E+00 -2.98564600E+00 -1.96278386E+00  2.13954006E+00 -3.62371169E+00
  2.46876586E+00  1.14772057E+00 -2.98568052E+00  1.96278653E+00 -2.13951102E+00
Number of symbols in /Mol/                 I                0
Force Field                                I                0
Atom Types                                 C   N=          10
                                                            
                                                            
Int Atom Types                             I   N=          10
           0           0           0           0           0           0
           0           0           0           0
MM charges                                 R   N=          10
  0.00000000E+00  0.00000000E+00  0.00000000E+00  0.00000000E+00  0.00000000E+00
  0.00000000E+00  0.00000000E+00  0.00000000E+00  0.00000000E+00  0.00000000E+00
Integer atomic weights                     I   N=          10
          12          12          16          12          16          16
           1           1           1           1
Real atomic weights                        R   N=          10
  1.20000000E+01  1.20000000E+01  1.59949146E+01  1.20000000E+01  1.59949146E+01
  1.59949146E+01  1.00782504E+00  1.00782504E+00  1.00782504E+00  1.00782504E+00
Atom fragment info                         I   N=          10
           0           0           0           0           0           0
           0           0           0           0
Atom residue num                           I   N=          10
           0           0           0           0           0           0
           0           0           0           0
Nuclear spins                              I   N=          10
           0           0           0           0           0           0
           1           1           1           1
Nuclear ZEff                               R   N=          10
 -3.60000000E+00 -3.60000000E+00 -5.60000000E+00 -3.60000000E+00 -5.60000000E+00
 -5.60000000E+00 -1.00000000E+00 -1.00000000E+00 -1.00000000E+00 -1.00000000E+00
Nuclear ZNuc                               R   N=          10
  6.00000000E+00  6.00000000E+00  8.00000000E+00  6.00000000E+00  8.00000000E+00
  8.00000000E+00  1.00000000E+00  1.00000000E+00  1.00000000E+00  1.00000000E+00
Nuclear QMom                               R   N=          10
  0.00000000E+00  0.00000000E+00  0.00000000E+00  0.00000000E+00  0.00000000E+00
  0.00000000E+00  0.00000000E+00  0.00000000E+00  0.00000000E+00  0.00000000E+00
Nuclear GFac                               R   N=          10
  0.00000000E+00  0.00000000E+00  0.00000000E+00  0.00000000E+00  0.00000000E+00
  0.00000000E+00  2.79284600E+00  2.79284600E+00  2.79284600E+00  2.79284600E+00
MicOpt                                     I   N=          10
          -1          -1          -1          -1          -1          -1
          -1          -1          -1          -1
Number of residues                         I                0
Number of secondary structures             I                0
Redundant internal dimensions              I   N=           4
          46          10          17          19
Redundant internal coordinate indices      I   N=         184
           1           2           0           0           1           6
           0           0           1           7           0           0
           1           8           0           0           2           3
           0           0           2           9           0           0
           2          10           0           0           3           4
           0           0           4           5           0           0
           4           6           0           0           2           1
           6           0           2           1           7           0
           2           1           8           0           6           1
           7           0           6           1           8           0
           7           1           8           0           1           2
           3           0           1           2           9           0
           1           2          10           0           3           2
           9           0           3           2          10           0
           9           2          10           0           2           3
           4           0           3           4           5           0
           3           4           6           0           5           4
           6           0           1           6           4           0
           6           1           2           3           6           1
           2           9           6           1           2          10
           7           1           2           3           7           1
           2           9           7           1           2          10
           8           1           2           3           8           1
           2           9           8           1           2          10
           2           1           6           4           7           1
           6           4           8           1           6           4
           1           2           3           4           9           2
           3           4          10           2           3           4
           2           3           4           5           2           3
           4           6           3           4           6           1
           5           4           6           1
Redundant internal coordinates             R   N=          46
  2.89177942E+00  2.74501059E+00  2.05717550E+00  2.06349439E+00  2.74501062E+00
  2.05717555E+00  2.06349418E+00  2.54743486E+00  2.28493979E+00  2.54743492E+00
  1.79077045E+00  1.98553548E+00  1.97320661E+00  1.89083537E+00  1.88482486E+00
  1.92931433E+00  1.79076942E+00  1.98553165E+00  1.97321086E+00  1.89083647E+00
  1.88482393E+00  1.92931468E+00  1.90825062E+00  2.17007657E+00  1.94303179E+00
  2.17007694E+00  1.90825332E+00 -3.70408762E-01 -2.40872667E+00  1.65505984E+00
 -2.40872779E+00  1.83613961E+00 -3.83259184E-01  1.65505960E+00 -3.83258304E-01
 -2.60265710E+00  3.17062125E-01  2.42199026E+00 -1.77106152E+00  3.17089428E-01
  2.42201313E+00 -1.77103813E+00  3.01036159E+00 -1.31310295E-01 -1.31263010E-01
  3.01025042E+00
ZRed-IntVec                                I   N=          46
           0           0           0           0           0           0
           0           0           0           0           0           0
           0           0           0           0           0           0
           0           0           0           0           0           0
           0           0           0           0           0           0
           0           0           0           0           0           0
           0           0           0           0           0           0
           0           0           0           0
ZRed-FPVec                                 R   N=          46
  0.00000000E+00  0.00000000E+00  0.00000000E+00  0.00000000E+00  0.00000000E+00
  0.00000000E+00  0.00000000E+00  0.00000000E+00  0.00000000E+00  0.00000000E+00
  0.00000000E+00  0.00000000E+00  0.00000000E+00  0.00000000E+00  0.00000000E+00
  0.00000000E+00  0.00000000E+00  0.00000000E+00  0.00000000E+00  0.00000000E+00
  0.00000000E+00  0.00000000E+00  0.00000000E+00  0.00000000E+00  0.00000000E+00
  0.00000000E+00  0.00000000E+00  0.00000000E+00  0.00000000E+00  0.00000000E+00
  0.00000000E+00  0.00000000E+00  0.00000000E+00  0.00000000E+00  0.00000000E+00
  0.00000000E+00  0.00000000E+00  0.00000000E+00  0.00000000E+00  0.00000000E+00
  0.00000000E+00  0.00000000E+00  0.00000000E+00  0.00000000E+00  0.00000000E+00
  0.00000000E+00
ZRed-Constraint1                           R   N=          46
  2.89177942E+00  2.74501059E+00  2.05717550E+00  2.06349439E+00  2.74501062E+00
  2.05717555E+00  2.06349418E+00  2.54743486E+00  2.28493979E+00  2.54743492E+00
  1.79077045E+00  1.98553548E+00  1.97320661E+00  1.89083537E+00  1.88482486E+00
  1.92931433E+00  1.79076942E+00  1.98553165E+00  1.97321086E+00  1.89083647E+00
  1.88482393E+00  1.92931468E+00  1.90825062E+00  2.17007657E+00  1.94303179E+00
  2.17007694E+00  1.90825332E+00 -3.70408762E-01 -2.40872667E+00  1.65505984E+00
 -2.40872779E+00  1.83613961E+00 -3.83259184E-01  1.65505960E+00 -3.83258304E-01
 -2.60265710E+00  3.17062125E-01  2.42199026E+00 -1.77106152E+00  3.17089428E-01
  2.42201313E+00 -1.77103813E+00  3.01036159E+00 -1.31310295E-01 -1.31263010E-01
  3.01025042E+00
ZRed-Constraint2                           R   N=          46
  2.82297142E+00  2.67409057E+00  2.06603596E+00  2.06974856E+00  2.67409131E+00
  2.06603753E+00  2.06974986E+00  2.58280724E+00  2.30312579E+00  2.58280603E+00
  1.79495169E+00  1.96455160E+00  1.96326121E+00  1.93791464E+00  1.89557905E+00
  1.90470611E+00  1.79495227E+00  1.96455056E+00  1.96326233E+00  1.93791348E+00
  1.89558027E+00  1.90470553E+00  1.85883764E+00  2.17236778E+00  1.93844857E+00
  2.17236896E+00  1.85883705E+00 -5.55303028E-01 -2.64204723E+00  1.48068876E+00
 -2.64204879E+00  1.55439231E+00 -6.06056997E-01  1.48068649E+00 -6.06057718E-01
 -2.76650703E+00  4.54835408E-01  2.55996704E+00 -1.62883693E+00  4.54826397E-01
  2.55995656E+00 -1.62884806E+00  2.95577614E+00 -1.85814429E-01 -1.85829797E-01
  2.95576494E+00
SymInf integers                            I   N=          26
           1           1           1           1           1           0
           0           0           0           0           0           0
           0           0           0           0           0           0
           0           0           0           0           0           0
           0           0
RotTr to input orientation                 R   N=          12
  9.99570772E-01  1.01097208E-02  2.74966364E-02 -1.55410499E-02  9.78607156E-01
  2.05149970E-01 -2.48343962E-02 -2.05489240E-01  9.78344226E-01  1.24037595E+00
  1.25472876E-02  3.41158352E-02
Number of contracted shells                I               46
Number of primitive shells                 I               96
Pure/Cartesian d shells                    I                1
Pure/Cartesian f shells                    I                0
Highest angular momentum                   I                2
Largest degree of contraction              I                6
Shell types                                I   N=          46
           0          -1          -1          -1           2           0
          -1          -1          -1           2           0          -1
          -1          -1           2           0          -1          -1
          -1           2           0          -1          -1          -1
           2           0          -1          -1          -1           2
           0           0           0           1           0           0
           0           1           0           0           0           1
           0           0           0           1
Number of primitives per shell             I   N=          46
           6           3           1           1           1           6
           3           1           1           1           6           3
           1           1           1           6           3           1
           1           1           6           3           1           1
           1           6           3           1           1           1
           3           1           1           1           3           1
           1           1           3           1           1           1
           3           1           1           1
Shell to atom map                          I   N=          46
           1           1           1           1           1           2
           2           2           2           2           3           3
           3           3           3           4           4           4
           4           4           5           5           5           5
           5           6           6           6           6           6
           7           7           7           7           8           8
           8           8           9           9           9           9
          10          10          10          10
Primitive exponents                        R   N=          96
  3.04752488E+03  4.57369518E+02  1.03948685E+02  2.92101553E+01  9.28666296E+00
  3.16392696E+00  7.86827235E+00  1.88128854E+00  5.44249258E-01  1.68714478E-01
  4.38000000E-02  8.00000000E-01  3.04752488E+03  4.57369518E+02  1.03948685E+02
  2.92101553E+01  9.28666296E+00  3.16392696E+00  7.86827235E+00  1.88128854E+00
  5.44249258E-01  1.68714478E-01  4.38000000E-02  8.00000000E-01  5.48467166E+03
  8.25234946E+02  1.88046958E+02  5.29645000E+01  1.68975704E+01  5.79963534E+00
  1.55396162E+01  3.59993359E+00  1.01376175E+00  2.70005823E-01  8.45000000E-02
  8.00000000E-01  3.04752488E+03  4.57369518E+02  1.03948685E+02  2.92101553E+01
  9.28666296E+00  3.16392696E+00  7.86827235E+00  1.88128854E+00  5.44249258E-01
  1.68714478E-01  4.38000000E-02  8.00000000E-01  5.48467166E+03  8.25234946E+02
  1.88046958E+02  5.29645000E+01  1.68975704E+01  5.79963534E+00  1.55396162E+01
  3.59993359E+00  1.01376175E+00  2.70005823E-01  8.45000000E-02  8.00000000E-01
  5.48467166E+03  8.25234946E+02  1.88046958E+02  5.29645000E+01  1.68975704E+01
  5.79963534E+00  1.55396162E+01  3.59993359E+00  1.01376175E+00  2.70005823E-01
  8.45000000E-02  8.00000000E-01  1.87311370E+01  2.82539436E+00  6.40121692E-01
  1.61277759E-01  3.60000000E-02  1.10000000E+00  1.87311370E+01  2.82539436E+00
  6.40121692E-01  1.61277759E-01  3.60000000E-02  1.10000000E+00  1.87311370E+01
  2.82539436E+00  6.40121692E-01  1.61277759E-01  3.60000000E-02  1.10000000E+00
  1.87311370E+01  2.82539436E+00  6.40121692E-01  1.61277759E-01  3.60000000E-02
  1.10000000E+00
Contraction coefficients                   R   N=          96
  1.83473713E-03  1.40373228E-02  6.88426223E-02  2.32184443E-01  4.67941348E-01
  3.62311985E-01 -1.19332420E-01 -1.60854152E-01  1.14345644E+00  1.00000000E+00
  1.00000000E+00  1.00000000E+00  1.83473713E-03  1.40373228E-02  6.88426223E-02
  2.32184443E-01  4.67941348E-01  3.62311985E-01 -1.19332420E-01 -1.60854152E-01
  1.14345644E+00  1.00000000E+00  1.00000000E+00  1.00000000E+00  1.83107443E-03
  1.39501722E-02  6.84450781E-02  2.32714336E-01  4.70192898E-01  3.58520853E-01
 -1.10777550E-01 -1.48026263E-01  1.13076702E+00  1.00000000E+00  1.00000000E+00
  1.00000000E+00  1.83473713E-03  1.40373228E-02  6.88426223E-02  2.32184443E-01
  4.67941348E-01  3.62311985E-01 -1.19332420E-01 -1.60854152E-01  1.14345644E+00
  1.00000000E+00  1.00000000E+00  1.00000000E+00  1.83107443E-03  1.39501722E-02
  6.84450781E-02  2.32714336E-01  4.70192898E-01  3.58520853E-01 -1.10777550E-01
 -1.48026263E-01  1.13076702E+00  1.00000000E+00  1.00000000E+00  1.00000000E+00
  1.83107443E-03  1.39501722E-02  6.84450781E-02  2.32714336E-01  4.70192898E-01
  3.58520853E-01 -1.10777550E-01 -1.48026263E-01  1.13076702E+00  1.00000000E+00
  1.00000000E+00  1.00000000E+00  3.34946043E-02  2.34726953E-01  8.13757326E-01
  1.00000000E+00  1.00000000E+00  1.00000000E+00  3.34946043E-02  2.34726953E-01
  8.13757326E-01  1.00000000E+00  1.00000000E+00  1.00000000E+00  3.34946043E-02
  2.34726953E-01  8.13757326E-01  1.00000000E+00  1.00000000E+00  1.00000000E+00
  3.34946043E-02  2.34726953E-01  8.13757326E-01  1.00000000E+00  1.00000000E+00
  1.00000000E+00
P(S=P) Contraction coefficients            R   N=          96
  0.00000000E+00  0.00000000E+00  0.00000000E+00  0.00000000E+00  0.00000000E+00
  0.00000000E+00  6.89990666E-02  3.16423961E-01  7.44308291E-01  1.00000000E+00
  1.00000000E+00  0.00000000E+00  0.00000000E+00  0.00000000E+00  0.00000000E+00
  0.00000000E+00  0.00000000E+00  0.00000000E+00  6.89990666E-02  3.16423961E-01
  7.44308291E-01  1.00000000E+00  1.00000000E+00  0.00000000E+00  0.00000000E+00
  0.00000000E+00  0.00000000E+00  0.00000000E+00  0.00000000E+00  0.00000000E+00
  7.08742682E-02  3.39752839E-01  7.27158577E-01  1.00000000E+00  1.00000000E+00
  0.00000000E+00  0.00000000E+00  0.00000000E+00  0.00000000E+00  0.00000000E+00
  0.00000000E+00  0.00000000E+00  6.89990666E-02  3.16423961E-01  7.44308291E-01
  1.00000000E+00  1.00000000E+00  0.00000000E+00  0.00000000E+00  0.00000000E+00
  0.00000000E+00  0.00000000E+00  0.00000000E+00  0.00000000E+00  7.08742682E-02
  3.39752839E-01  7.27158577E-01  1.00000000E+00  1.00000000E+00  0.00000000E+00
  0.00000000E+00  0.00000000E+00  0.00000000E+00  0.00000000E+00  0.00000000E+00
  0.00000000E+00  7.08742682E-02  3.39752839E-01  7.27158577E-01  1.00000000E+00
  1.00000000E+00  0.00000000E+00  0.00000000E+00  0.00000000E+00  0.00000000E+00
  0.00000000E+00  0.00000000E+00  0.00000000E+00  0.00000000E+00  0.00000000E+00
  0.00000000E+00  0.00000000E+00  0.00000000E+00  0.00000000E+00  0.00000000E+00
  0.00000000E+00  0.00000000E+00  0.00000000E+00  0.00000000E+00  0.00000000E+00
  0.00000000E+00  0.00000000E+00  0.00000000E+00  0.00000000E+00  0.00000000E+00
  0.00000000E+00
Coordinates of each shell                  R   N=         138
 -2.48020137E+00 -1.43040880E+00  2.11040230E-01 -2.48020137E+00 -1.43040880E+00
  2.11040230E-01 -2.48020137E+00 -1.43040880E+00  2.11040230E-01 -2.48020137E+00
 -1.43040880E+00  2.11040230E-01 -2.48020137E+00 -1.43040880E+00  2.11040230E-01
 -2.48020845E+00  1.43040453E+00 -2.11020516E-01 -2.48020845E+00  1.43040453E+00
 -2.11020516E-01 -2.48020845E+00  1.43040453E+00 -2.11020516E-01 -2.48020845E+00
  1.43040453E+00 -2.11020516E-01 -2.48020845E+00  1.43040453E+00 -2.11020516E-01
  1.52846055E-01  2.09496394E+00  1.89564172E-01  1.52846055E-01  2.09496394E+00
  1.89564172E-01  1.52846055E-01  2.09496394E+00  1.89564172E-01  1.52846055E-01
  2.09496394E+00  1.89564172E-01  1.52846055E-01  2.09496394E+00  1.89564172E-01
  1.58972418E+00  5.26813513E-06 -5.06296182E-05  1.58972418E+00  5.26813513E-06
 -5.06296182E-05  1.58972418E+00  5.26813513E-06 -5.06296182E-05  1.58972418E+00
  5.26813513E-06 -5.06296182E-05  1.58972418E+00  5.26813513E-06 -5.06296182E-05
  3.87466397E+00 -3.89606611E-08  3.03338714E-05  3.87466397E+00 -3.89606611E-08
  3.03338714E-05  3.87466397E+00 -3.89606611E-08  3.03338714E-05  3.87466397E+00
 -3.89606611E-08  3.03338714E-05  3.87466397E+00 -3.89606611E-08  3.03338714E-05
  1.52848958E-01 -2.09496321E+00 -1.89579978E-01  1.52848958E-01 -2.09496321E+00
 -1.89579978E-01  1.52848958E-01 -2.09496321E+00 -1.89579978E-01  1.52848958E-01
 -2.09496321E+00 -1.89579978E-01  1.52848958E-01 -2.09496321E+00 -1.89579978E-01
 -3.62371989E+00 -2.46878003E+00 -1.14768035E+00 -3.62371989E+00 -2.46878003E+00
 -1.14768035E+00 -3.62371989E+00 -2.46878003E+00 -1.14768035E+00 -3.62371989E+00
 -2.46878003E+00 -1.14768035E+00 -2.98564600E+00 -1.96278386E+00  2.13954006E+00
 -2.98564600E+00 -1.96278386E+00  2.13954006E+00 -2.98564600E+00 -1.96278386E+00
  2.13954006E+00 -2.98564600E+00 -1.96278386E+00  2.13954006E+00 -3.62371169E+00
  2.46876586E+00  1.14772057E+00 -3.62371169E+00  2.46876586E+00  1.14772057E+00
 -3.62371169E+00  2.46876586E+00  1.14772057E+00 -3.62371169E+00  2.46876586E+00
  1.14772057E+00 -2.98568052E+00  1.96278653E+00 -2.13951102E+00 -2.98568052E+00
  1.96278653E+00 -2.13951102E+00 -2.98568052E+00  1.96278653E+00 -2.13951102E+00
 -2.98568052E+00  1.96278653E+00 -2.13951102E+00
Num ILSW                                   I              100
ILSW                                       I   N=         100
           0           1           0           0           2           0
           0           0           0           0         402          -1
           5           0           0           0           2           0
           0           0           1           0           1           0
           1           0           0           0           0           0
           0           0      100000           0          -1           0
           0           0           0           0           0           0
           0           0           0           1           0           0
           0 -2000000000           1           0           0           0
           0           0         141          52           0           0
           0           0           5           0           0           0
           0           0           0           0           0           1
           0           0           0           0           0           0
           0           0           0           0           0           0
           0           0           0           0           0           0
           0           0           0           0           0           0
           0           0           0           0
Num RLSW                                   I               52
RLSW                                       R   N=          52
  8.00000000E-01  7.20000000E-01  1.00000000E+00  8.10000000E-01  2.00000000E-01
  0.00000000E+00  0.00000000E+00  1.00000000E+00  0.00000000E+00  0.00000000E+00
  0.00000000E+00  0.00000000E+00  1.00000000E+00  0.00000000E+00  0.00000000E+00
  0.00000000E+00  0.00000000E+00  1.00000000E+00  0.00000000E+00  0.00000000E+00
  0.00000000E+00  0.00000000E+00  1.00000000E+00  0.00000000E+00  0.00000000E+00
  0.00000000E+00  0.00000000E+00  1.00000000E+00  0.00000000E+00  0.00000000E+00
  0.00000000E+00  0.00000000E+00  1.00000000E+00  0.00000000E+00  0.00000000E+00
  0.00000000E+00  0.00000000E+00  0.00000000E+00  1.00000000E+00  1.00000000E+00
  0.00000000E+00  1.00000000E+00  0.00000000E+00  0.00000000E+00  0.00000000E+00
  0.00000000E+00  0.00000000E+00  0.00000000E+00  0.00000000E+00  0.00000000E+00
  0.00000000E+00  0.00000000E+00
MxBond                                     I                4
NBond                                      I   N=          10
           4           4           2           3           1           2
           1           1           1           1
IBond                                      I   N=          40
           2           6           7           8           1           3
           9          10           2           4           0           0
           3           5           6           0           4           0
           0           0           1           4           0           0
           1           0           0           0           1           0
           0           0           2           0           0           0
           2           0           0           0
RBond                                      R   N=          40
  1.00000000E+00  1.00000000E+00  1.00000000E+00  1.00000000E+00  1.00000000E+00
  1.00000000E+00  1.00000000E+00  1.00000000E+00  1.00000000E+00  1.50000000E+00
  0.00000000E+00  0.00000000E+00  1.50000000E+00  2.00000000E+00  1.50000000E+00
  0.00000000E+00  2.00000000E+00  0.00000000E+00  0.00000000E+00  0.00000000E+00
  1.00000000E+00  1.50000000E+00  0.00000000E+00  0.00000000E+00  1.00000000E+00
  0.00000000E+00  0.00000000E+00  0.00000000E+00  1.00000000E+00  0.00000000E+00
  0.00000000E+00  0.00000000E+00  1.00000000E+00  0.00000000E+00  0.00000000E+00
  0.00000000E+00  1.00000000E+00  0.00000000E+00  0.00000000E+00  0.00000000E+00
Virial Ratio                               R      2.009077250499176E+00
SCF Energy                                 R     -3.424442608228652E+02
Total Energy                               R     -3.424442608228652E+02
RMS Force                                  R      1.142078224722098E-04
RMS Density                                R      3.059388843075737E-09
NImag                                      I                0
Job Status                                 I                1
Nuclear derivative order                   I                2
PCM-NSphere                                I               10
PCM-NGenSphere                             I               10
PCM-NOrd                                   I   N=          10
           1           2           3           4           5           6
           7           8           9          10
PCM-SphereRadii                            R   N=          10
  4.00253442E+00  4.00253442E+00  3.63772279E+00  4.00253442E+00  3.63772279E+00
  3.63772279E+00  2.99956228E+00  2.99956228E+00  2.99956228E+00  2.99956228E+00
PCM-SphereLoc                              R   N=          30
 -2.48020137E+00 -1.43040880E+00  2.11040230E-01 -2.48020845E+00  1.43040453E+00
 -2.11020516E-01  1.52846055E-01  2.09496394E+00  1.89564172E-01  1.58972418E+00
  5.26813513E-06 -5.06296182E-05  3.87466397E+00 -3.89606611E-08  3.03338714E-05
  1.52848958E-01 -2.09496321E+00 -1.89579978E-01 -3.62371989E+00 -2.46878003E+00
 -1.14768035E+00 -2.98564600E+00 -1.96278386E+00  2.13954006E+00 -3.62371169E+00
  2.46876586E+00  1.14772057E+00 -2.98568052E+00  1.96278653E+00 -2.13951102E+00
External E-field                           R   N=          35
  0.00000000E+00  0.00000000E+00  0.00000000E+00  0.00000000E+00  0.00000000E+00
  0.00000000E+00  0.00000000E+00  0.00000000E+00  0.00000000E+00  0.00000000E+00
  0.00000000E+00  0.00000000E+00  0.00000000E+00  0.00000000E+00  0.00000000E+00
  0.00000000E+00  0.00000000E+00  0.00000000E+00  0.00000000E+00  0.00000000E+00
  0.00000000E+00  0.00000000E+00  0.00000000E+00  0.00000000E+00  0.00000000E+00
  0.00000000E+00  0.00000000E+00  0.00000000E+00  0.00000000E+00  0.00000000E+00
  0.00000000E+00  0.00000000E+00  0.00000000E+00  0.00000000E+00  0.00000000E+00
IOpCl                                      I                0
IROHF                                      I                0
Alpha Orbital Energies                     R   N=         138
 -1.92272244E+01 -1.92272170E+01 -1.91651996E+01 -1.03854690E+01 -1.02705917E+01
 -1.02703723E+01 -1.17686556E+00 -1.06370618E+00 -1.05712969E+00 -7.92282246E-01
 -6.89649393E-01 -6.19528031E-01 -5.51413277E-01 -5.29996861E-01 -5.13252600E-01
 -4.61756656E-01 -4.52575502E-01 -4.47143486E-01 -3.96128309E-01 -3.90011541E-01
 -3.30281144E-01 -3.24322727E-01 -3.19312991E-01 -7.76515021E-03  9.10964594E-03
  9.58096000E-03  2.02147318E-02  2.38299671E-02  5.09434744E-02  5.72774856E-02
  6.50481897E-02  7.68620058E-02  7.70290396E-02  9.99257242E-02  1.09865012E-01
  1.21111506E-01  1.25031331E-01  1.34812535E-01  1.41550319E-01  1.47560332E-01
  1.56086688E-01  1.78944739E-01  1.92306080E-01  1.99125412E-01  2.14116340E-01
  2.27942684E-01  2.42220031E-01  2.48581178E-01  2.72405473E-01  2.72539082E-01
  2.78635891E-01  2.85686845E-01  2.98616528E-01  3.22011535E-01  3.24039599E-01
  3.38056202E-01  3.60894256E-01  3.64585451E-01  3.72603536E-01  3.81533248E-01
  3.83034594E-01  4.96029049E-01  6.38800920E-01  6.52025856E-01  6.87334886E-01
  6.92699720E-01  7.24013315E-01  7.71587348E-01  7.75562617E-01  8.61747705E-01
  8.75467884E-01  9.33412027E-01  9.74129063E-01  1.00479162E+00  1.06237348E+00
  1.06307536E+00  1.13007701E+00  1.15540468E+00  1.20316958E+00  1.21948413E+00
  1.25170763E+00  1.27670735E+00  1.28488648E+00  1.29316073E+00  1.31157743E+00
  1.34005545E+00  1.39262623E+00  1.40691183E+00  1.43769411E+00  1.50909349E+00
  1.56362493E+00  1.59669227E+00  1.64253071E+00  1.67566136E+00  1.76498678E+00
  1.78385684E+00  1.81947173E+00  1.82033390E+00  1.85460137E+00  1.89885517E+00
  1.90450909E+00  1.91973678E+00  1.93536098E+00  1.97009898E+00  1.99024588E+00
  2.02853935E+00  2.09663323E+00  2.15294327E+00  2.21040735E+00  2.23810162E+00
  2.36572447E+00  2.43266743E+00  2.44426230E+00  2.48393605E+00  2.54460136E+00
  2.55857240E+00  2.61320673E+00  2.69030948E+00  2.69400348E+00  2.77186264E+00
  2.78475894E+00  2.81849107E+00  2.83091503E+00  2.89301071E+00  2.98260040E+00
  3.08252258E+00  3.18736519E+00  3.19820786E+00  3.26169864E+00  3.32886084E+00
  3.40122450E+00  3.51616193E+00  4.13557351E+00  4.31331531E+00  4.42408984E+00
  4.52066681E+00  4.56461496E+00  4.63264776E+00
Alpha MO coefficients                      R   N=       19044
  2.79307154E-05  1.54889745E-04 -2.02425506E-04  3.20532441E-05  2.65379803E-05