DMC_B3LYP_6-31ppgd,p_pcm_Water                                          
Freq      RB3LYP                                                      6-31++G(d,p)        
Number of atoms                            I               12
Info1-9                                    I   N=           9
          21          21        1002           0           0         100
           6          18        -502
Full Title                                 C   N=           3
DMC_B3LYP_6-31ppgd,p_pcm_Water      
Route                                      C   N=           6
# opt freq B3LYP/6-31++g(d,p) em=gd3bj scrf=(pcm,solvent=Wat
er)         
Charge                                     I                0
Multiplicity                               I                1
Number of electrons                        I               48
Number of alpha electrons                  I               24
Number of beta electrons                   I               24
Number of basis functions                  I              150
Number of independent functions            I              150
Number of point charges in /Mol/           I                0
Number of translation vectors              I                0
Atomic numbers                             I   N=          12
           6           8           6           8           8           6
           1           1           1           1           1           1
Nuclear charges                            R   N=          12
  6.00000000E+00  8.00000000E+00  6.00000000E+00  8.00000000E+00  8.00000000E+00
  6.00000000E+00  1.00000000E+00  1.00000000E+00  1.00000000E+00  1.00000000E+00
  1.00000000E+00  1.00000000E+00
Current cartesian coordinates              R   N=          36
  4.44962330E+00 -3.69313009E-02  3.59226861E-04  2.04731179E+00 -1.33859362E+00
 -1.43911072E-04  2.67114398E-19  1.40494387E-01 -6.69032010E-04  2.72997161E-17
  2.44296623E+00 -1.10039931E-04 -2.04731179E+00 -1.33859362E+00 -1.43969394E-04
 -4.44962330E+00 -3.69313015E-02  3.59278544E-04  5.86653599E+00 -1.52736879E+00
  7.26348759E-04  4.62540770E+00  1.13212148E+00 -1.68973146E+00  4.62465828E+00
  1.13223596E+00  1.69044829E+00 -4.62465386E+00  1.13224454E+00  1.69044281E+00
 -4.62541211E+00  1.13211291E+00 -1.68973693E+00 -5.86653598E+00 -1.52736879E+00
  7.37457746E-04
Number of symbols in /Mol/                 I                0
Force Field                                I                0
Atom Types                                 C   N=          12
                                                            
                                                            
                        
Int Atom Types                             I   N=          12
           0           0           0           0           0           0
           0           0           0           0           0           0
MM charges                                 R   N=          12
  0.00000000E+00  0.00000000E+00  0.00000000E+00  0.00000000E+00  0.00000000E+00
  0.00000000E+00  0.00000000E+00  0.00000000E+00  0.00000000E+00  0.00000000E+00
  0.00000000E+00  0.00000000E+00
Integer atomic weights                     I   N=          12
          12          16          12          16          16          12
           1           1           1           1           1           1
Real atomic weights                        R   N=          12
  1.20000000E+01  1.59949146E+01  1.20000000E+01  1.59949146E+01  1.59949146E+01
  1.20000000E+01  1.00782504E+00  1.00782504E+00  1.00782504E+00  1.00782504E+00
  1.00782504E+00  1.00782504E+00
Atom fragment info                         I   N=          12
           0           0           0           0           0           0
           0           0           0           0           0           0
Atom residue num                           I   N=          12
           0           0           0           0           0           0
           0           0           0           0           0           0
Nuclear spins                              I   N=          12
           0           0           0           0           0           0
           1           1           1           1           1           1
Nuclear ZEff                               R   N=          12
 -3.60000000E+00 -5.60000000E+00 -3.60000000E+00 -5.60000000E+00 -5.60000000E+00
 -3.60000000E+00 -1.00000000E+00 -1.00000000E+00 -1.00000000E+00 -1.00000000E+00
 -1.00000000E+00 -1.00000000E+00
Nuclear ZNuc                               R   N=          12
  6.00000000E+00  8.00000000E+00  6.00000000E+00  8.00000000E+00  8.00000000E+00
  6.00000000E+00  1.00000000E+00  1.00000000E+00  1.00000000E+00  1.00000000E+00
  1.00000000E+00  1.00000000E+00
Nuclear QMom                               R   N=          12
  0.00000000E+00  0.00000000E+00  0.00000000E+00  0.00000000E+00  0.00000000E+00
  0.00000000E+00  0.00000000E+00  0.00000000E+00  0.00000000E+00  0.00000000E+00
  0.00000000E+00  0.00000000E+00
Nuclear GFac                               R   N=          12
  0.00000000E+00  0.00000000E+00  0.00000000E+00  0.00000000E+00  0.00000000E+00
  0.00000000E+00  2.79284600E+00  2.79284600E+00  2.79284600E+00  2.79284600E+00
  2.79284600E+00  2.79284600E+00
MicOpt                                     I   N=          12
          -1          -1          -1          -1          -1          -1
          -1          -1          -1          -1          -1          -1
Number of residues                         I                0
Number of secondary structures             I                0
Redundant internal dimensions              I   N=           4
          38          11          17          10
Redundant internal coordinate indices      I   N=         152
           1           2           0           0           1           7
           0           0           1           8           0           0
           1           9           0           0           2           3
           0           0           3           4           0           0
           3           5           0           0           5           6
           0           0           6          10           0           0
           6          11           0           0           6          12
           0           0           2           1           7           0
           2           1           8           0           2           1
           9           0           7           1           8           0
           7           1           9           0           8           1
           9           0           1           2           3           0
           2           3           4           0           2           3
           5           0           4           3           5           0
           3           5           6           0           5           6
          10           0           5           6          11           0
           5           6          12           0          10           6
          11           0          10           6          12           0
          11           6          12           0           7           1
           2           3           8           1           2           3
           9           1           2           3           1           2
           3           4           1           2           3           5
           2           3           5           6           4           3
           5           6           3           5           6          10
           3           5           6          11           3           5
           6          12
Redundant internal coordinates             R   N=          38
  2.73229311E+00  2.05646435E+00  2.06252056E+00  2.06252039E+00  2.52570528E+00
  2.30247191E+00  2.52570528E+00  2.73229311E+00  2.06252034E+00  2.06252061E+00
  2.05646434E+00  1.83435585E+00  1.92283354E+00  1.92284291E+00  1.93074047E+00
  1.93073837E+00  1.92082962E+00  2.01940074E+00  2.19643339E+00  1.89031827E+00
  2.19643339E+00  2.01940074E+00  1.92284305E+00  1.92283339E+00  1.83435584E+00
  1.92082961E+00  1.93073847E+00  1.93074038E+00 -3.14158576E+00 -1.06124862E+00
  1.06126007E+00 -3.45423182E-04 -3.14120060E+00  3.14120053E+00  3.45350703E-04
 -1.06125427E+00  1.06125441E+00  3.14159137E+00
ZRed-IntVec                                I   N=          38
           0           0           0           0           0           0
           0           0           0           0           0           0
           0           0           0           0           0           0
           0           0           0           0           0           0
           0           0           0           0           0           0
           0           0           0           0           0           0
           0           0
ZRed-FPVec                                 R   N=          38
  0.00000000E+00  0.00000000E+00  0.00000000E+00  0.00000000E+00  0.00000000E+00
  0.00000000E+00  0.00000000E+00  0.00000000E+00  0.00000000E+00  0.00000000E+00
  0.00000000E+00  0.00000000E+00  0.00000000E+00  0.00000000E+00  0.00000000E+00
  0.00000000E+00  0.00000000E+00  0.00000000E+00  0.00000000E+00  0.00000000E+00
  0.00000000E+00  0.00000000E+00  0.00000000E+00  0.00000000E+00  0.00000000E+00
  0.00000000E+00  0.00000000E+00  0.00000000E+00  0.00000000E+00  0.00000000E+00
  0.00000000E+00  0.00000000E+00  0.00000000E+00  0.00000000E+00  0.00000000E+00
  0.00000000E+00  0.00000000E+00  0.00000000E+00
ZRed-Constraint1                           R   N=          38
  2.73229311E+00  2.05646435E+00  2.06252056E+00  2.06252039E+00  2.52570528E+00
  2.30247191E+00  2.52570528E+00  2.73229311E+00  2.06252034E+00  2.06252061E+00
  2.05646434E+00  1.83435585E+00  1.92283354E+00  1.92284291E+00  1.93074047E+00
  1.93073837E+00  1.92082962E+00  2.01940074E+00  2.19643339E+00  1.89031827E+00
  2.19643339E+00  2.01940074E+00  1.92284305E+00  1.92283339E+00  1.83435584E+00
  1.92082961E+00  1.93073847E+00  1.93074038E+00 -3.14158576E+00 -1.06124862E+00
  1.06126007E+00 -3.45423182E-04 -3.14120060E+00  3.14120053E+00  3.45350704E-04
 -1.06125427E+00  1.06125441E+00  3.14159137E+00
ZRed-Constraint2                           R   N=          38
  2.69429615E+00  2.06655455E+00  2.06853580E+00  2.06853598E+00  2.56323673E+00
  2.30890625E+00  2.56323649E+00  2.69429626E+00  2.06853546E+00  2.06853565E+00
  2.06655496E+00  1.88643120E+00  1.92992666E+00  1.92992437E+00  1.89161513E+00
  1.89161412E+00  1.93288427E+00  1.98679054E+00  2.19733644E+00  1.88851266E+00
  2.19733620E+00  1.98679063E+00  1.92992508E+00  1.92992548E+00  1.88643185E+00
  1.93288503E+00  1.89161384E+00  1.89161446E+00 -3.14158336E+00 -1.07363072E+00
  1.07365186E+00  5.64561323E-06 -3.14158552E+00  3.14158704E+00 -4.12877808E-06
 -1.07363854E+00  1.07364468E+00 -3.14158909E+00
SymInf integers                            I   N=          26
           1           1           1           1           1           0
           0           0           0           0           0           0
           0           0           0           0           0           0
           0           0           0           0           0           0
           0           0
RotTr to input orientation                 R   N=          12
 -9.99641501E-01  2.42712524E-02 -1.13037536E-02  2.67610444E-02  8.92398943E-01
 -4.50453074E-01 -8.45602508E-04 -4.50594088E-01 -8.92728544E-01 -2.91318190E-03
 -9.70563091E-02  2.83977226E-01
Number of contracted shells                I               54
Number of primitive shells                 I              108
Pure/Cartesian d shells                    I                1
Pure/Cartesian f shells                    I                0
Highest angular momentum                   I                2
Largest degree of contraction              I                6
Shell types                                I   N=          54
           0          -1          -1          -1           2           0
          -1          -1          -1           2           0          -1
          -1          -1           2           0          -1          -1
          -1           2           0          -1          -1          -1
           2           0          -1          -1          -1           2
           0           0           0           1           0           0
           0           1           0           0           0           1
           0           0           0           1           0           0
           0           1           0           0           0           1
Number of primitives per shell             I   N=          54
           6           3           1           1           1           6
           3           1           1           1           6           3
           1           1           1           6           3           1
           1           1           6           3           1           1
           1           6           3           1           1           1
           3           1           1           1           3           1
           1           1           3           1           1           1
           3           1           1           1           3           1
           1           1           3           1           1           1
Shell to atom map                          I   N=          54
           1           1           1           1           1           2
           2           2           2           2           3           3
           3           3           3           4           4           4
           4           4           5           5           5           5
           5           6           6           6           6           6
           7           7           7           7           8           8
           8           8           9           9           9           9
          10          10          10          10          11          11
          11          11          12          12          12          12
Primitive exponents                        R   N=         108
  3.04752488E+03  4.57369518E+02  1.03948685E+02  2.92101553E+01  9.28666296E+00
  3.16392696E+00  7.86827235E+00  1.88128854E+00  5.44249258E-01  1.68714478E-01
  4.38000000E-02  8.00000000E-01  5.48467166E+03  8.25234946E+02  1.88046958E+02
  5.29645000E+01  1.68975704E+01  5.79963534E+00  1.55396162E+01  3.59993359E+00
  1.01376175E+00  2.70005823E-01  8.45000000E-02  8.00000000E-01  3.04752488E+03
  4.57369518E+02  1.03948685E+02  2.92101553E+01  9.28666296E+00  3.16392696E+00
  7.86827235E+00  1.88128854E+00  5.44249258E-01  1.68714478E-01  4.38000000E-02
  8.00000000E-01  5.48467166E+03  8.25234946E+02  1.88046958E+02  5.29645000E+01
  1.68975704E+01  5.79963534E+00  1.55396162E+01  3.59993359E+00  1.01376175E+00
  2.70005823E-01  8.45000000E-02  8.00000000E-01  5.48467166E+03  8.25234946E+02
  1.88046958E+02  5.29645000E+01  1.68975704E+01  5.79963534E+00  1.55396162E+01
  3.59993359E+00  1.01376175E+00  2.70005823E-01  8.45000000E-02  8.00000000E-01
  3.04752488E+03  4.57369518E+02  1.03948685E+02  2.92101553E+01  9.28666296E+00
  3.16392696E+00  7.86827235E+00  1.88128854E+00  5.44249258E-01  1.68714478E-01
  4.38000000E-02  8.00000000E-01  1.87311370E+01  2.82539436E+00  6.40121692E-01
  1.61277759E-01  3.60000000E-02  1.10000000E+00  1.87311370E+01  2.82539436E+00
  6.40121692E-01  1.61277759E-01  3.60000000E-02  1.10000000E+00  1.87311370E+01
  2.82539436E+00  6.40121692E-01  1.61277759E-01  3.60000000E-02  1.10000000E+00
  1.87311370E+01  2.82539436E+00  6.40121692E-01  1.61277759E-01  3.60000000E-02
  1.10000000E+00  1.87311370E+01  2.82539436E+00  6.40121692E-01  1.61277759E-01
  3.60000000E-02  1.10000000E+00  1.87311370E+01  2.82539436E+00  6.40121692E-01
  1.61277759E-01  3.60000000E-02  1.10000000E+00
Contraction coefficients                   R   N=         108
  1.83473713E-03  1.40373228E-02  6.88426223E-02  2.32184443E-01  4.67941348E-01
  3.62311985E-01 -1.19332420E-01 -1.60854152E-01  1.14345644E+00  1.00000000E+00
  1.00000000E+00  1.00000000E+00  1.83107443E-03  1.39501722E-02  6.84450781E-02
  2.32714336E-01  4.70192898E-01  3.58520853E-01 -1.10777550E-01 -1.48026263E-01
  1.13076702E+00  1.00000000E+00  1.00000000E+00  1.00000000E+00  1.83473713E-03
  1.40373228E-02  6.88426223E-02  2.32184443E-01  4.67941348E-01  3.62311985E-01
 -1.19332420E-01 -1.60854152E-01  1.14345644E+00  1.00000000E+00  1.00000000E+00
  1.00000000E+00  1.83107443E-03  1.39501722E-02  6.84450781E-02  2.32714336E-01
  4.70192898E-01  3.58520853E-01 -1.10777550E-01 -1.48026263E-01  1.13076702E+00
  1.00000000E+00  1.00000000E+00  1.00000000E+00  1.83107443E-03  1.39501722E-02
  6.84450781E-02  2.32714336E-01  4.70192898E-01  3.58520853E-01 -1.10777550E-01
 -1.48026263E-01  1.13076702E+00  1.00000000E+00  1.00000000E+00  1.00000000E+00
  1.83473713E-03  1.40373228E-02  6.88426223E-02  2.32184443E-01  4.67941348E-01
  3.62311985E-01 -1.19332420E-01 -1.60854152E-01  1.14345644E+00  1.00000000E+00
  1.00000000E+00  1.00000000E+00  3.34946043E-02  2.34726953E-01  8.13757326E-01
  1.00000000E+00  1.00000000E+00  1.00000000E+00  3.34946043E-02  2.34726953E-01
  8.13757326E-01  1.00000000E+00  1.00000000E+00  1.00000000E+00  3.34946043E-02
  2.34726953E-01  8.13757326E-01  1.00000000E+00  1.00000000E+00  1.00000000E+00
  3.34946043E-02  2.34726953E-01  8.13757326E-01  1.00000000E+00  1.00000000E+00
  1.00000000E+00  3.34946043E-02  2.34726953E-01  8.13757326E-01  1.00000000E+00
  1.00000000E+00  1.00000000E+00  3.34946043E-02  2.34726953E-01  8.13757326E-01
  1.00000000E+00  1.00000000E+00  1.00000000E+00
P(S=P) Contraction coefficients            R   N=         108
  0.00000000E+00  0.00000000E+00  0.00000000E+00  0.00000000E+00  0.00000000E+00
  0.00000000E+00  6.89990666E-02  3.16423961E-01  7.44308291E-01  1.00000000E+00
  1.00000000E+00  0.00000000E+00  0.00000000E+00  0.00000000E+00  0.00000000E+00
  0.00000000E+00  0.00000000E+00  0.00000000E+00  7.08742682E-02  3.39752839E-01
  7.27158577E-01  1.00000000E+00  1.00000000E+00  0.00000000E+00  0.00000000E+00
  0.00000000E+00  0.00000000E+00  0.00000000E+00  0.00000000E+00  0.00000000E+00
  6.89990666E-02  3.16423961E-01  7.44308291E-01  1.00000000E+00  1.00000000E+00
  0.00000000E+00  0.00000000E+00  0.00000000E+00  0.00000000E+00  0.00000000E+00
  0.00000000E+00  0.00000000E+00  7.08742682E-02  3.39752839E-01  7.27158577E-01
  1.00000000E+00  1.00000000E+00  0.00000000E+00  0.00000000E+00  0.00000000E+00
  0.00000000E+00  0.00000000E+00  0.00000000E+00  0.00000000E+00  7.08742682E-02
  3.39752839E-01  7.27158577E-01  1.00000000E+00  1.00000000E+00  0.00000000E+00
  0.00000000E+00  0.00000000E+00  0.00000000E+00  0.00000000E+00  0.00000000E+00
  0.00000000E+00  6.89990666E-02  3.16423961E-01  7.44308291E-01  1.00000000E+00
  1.00000000E+00  0.00000000E+00  0.00000000E+00  0.00000000E+00  0.00000000E+00
  0.00000000E+00  0.00000000E+00  0.00000000E+00  0.00000000E+00  0.00000000E+00
  0.00000000E+00  0.00000000E+00  0.00000000E+00  0.00000000E+00  0.00000000E+00
  0.00000000E+00  0.00000000E+00  0.00000000E+00  0.00000000E+00  0.00000000E+00
  0.00000000E+00  0.00000000E+00  0.00000000E+00  0.00000000E+00  0.00000000E+00
  0.00000000E+00  0.00000000E+00  0.00000000E+00  0.00000000E+00  0.00000000E+00
  0.00000000E+00  0.00000000E+00  0.00000000E+00  0.00000000E+00  0.00000000E+00
  0.00000000E+00  0.00000000E+00  0.00000000E+00
Coordinates of each shell                  R   N=         162
  4.44962330E+00 -3.69313009E-02  3.59226861E-04  4.44962330E+00 -3.69313009E-02
  3.59226861E-04  4.44962330E+00 -3.69313009E-02  3.59226861E-04  4.44962330E+00
 -3.69313009E-02  3.59226861E-04  4.44962330E+00 -3.69313009E-02  3.59226861E-04
  2.04731179E+00 -1.33859362E+00 -1.43911072E-04  2.04731179E+00 -1.33859362E+00
 -1.43911072E-04  2.04731179E+00 -1.33859362E+00 -1.43911072E-04  2.04731179E+00
 -1.33859362E+00 -1.43911072E-04  2.04731179E+00 -1.33859362E+00 -1.43911072E-04
  5.02739637E-20  1.40494387E-01 -6.69032010E-04  5.02739637E-20  1.40494387E-01
 -6.69032010E-04  5.02739637E-20  1.40494387E-01 -6.69032010E-04  5.02739637E-20
  1.40494387E-01 -6.69032010E-04  5.02739637E-20  1.40494387E-01 -6.69032010E-04
  1.94013127E-17  2.44296623E+00 -1.10039931E-04  1.94013127E-17  2.44296623E+00
 -1.10039931E-04  1.94013127E-17  2.44296623E+00 -1.10039931E-04  1.94013127E-17
  2.44296623E+00 -1.10039931E-04  1.94013127E-17  2.44296623E+00 -1.10039931E-04
 -2.04731179E+00 -1.33859362E+00 -1.43969394E-04 -2.04731179E+00 -1.33859362E+00
 -1.43969394E-04 -2.04731179E+00 -1.33859362E+00 -1.43969394E-04 -2.04731179E+00
 -1.33859362E+00 -1.43969394E-04 -2.04731179E+00 -1.33859362E+00 -1.43969394E-04
 -4.44962330E+00 -3.69313015E-02  3.59278544E-04 -4.44962330E+00 -3.69313015E-02
  3.59278544E-04 -4.44962330E+00 -3.69313015E-02  3.59278544E-04 -4.44962330E+00
 -3.69313015E-02  3.59278544E-04 -4.44962330E+00 -3.69313015E-02  3.59278544E-04
  5.86653599E+00 -1.52736879E+00  7.26348759E-04  5.86653599E+00 -1.52736879E+00
  7.26348759E-04  5.86653599E+00 -1.52736879E+00  7.26348759E-04  5.86653599E+00
 -1.52736879E+00  7.26348759E-04  4.62540770E+00  1.13212148E+00 -1.68973146E+00
  4.62540770E+00  1.13212148E+00 -1.68973146E+00  4.62540770E+00  1.13212148E+00
 -1.68973146E+00  4.62540770E+00  1.13212148E+00 -1.68973146E+00  4.62465828E+00
  1.13223596E+00  1.69044829E+00  4.62465828E+00  1.13223596E+00  1.69044829E+00
  4.62465828E+00  1.13223596E+00  1.69044829E+00  4.62465828E+00  1.13223596E+00
  1.69044829E+00 -4.62465386E+00  1.13224454E+00  1.69044281E+00 -4.62465386E+00
  1.13224454E+00  1.69044281E+00 -4.62465386E+00  1.13224454E+00  1.69044281E+00
 -4.62465386E+00  1.13224454E+00  1.69044281E+00 -4.62541211E+00  1.13211291E+00
 -1.68973693E+00 -4.62541211E+00  1.13211291E+00 -1.68973693E+00 -4.62541211E+00
  1.13211291E+00 -1.68973693E+00 -4.62541211E+00  1.13211291E+00 -1.68973693E+00
 -5.86653598E+00 -1.52736879E+00  7.37457746E-04 -5.86653598E+00 -1.52736879E+00
  7.37457746E-04 -5.86653598E+00 -1.52736879E+00  7.37457746E-04 -5.86653598E+00
 -1.52736879E+00  7.37457746E-04
Num ILSW                                   I              100
ILSW                                       I   N=         100
           0           1           0           0           2           0
           0           0           0           0         402          -1
           5           0           0           0           2           0
           0           0           1           0           1           0
           1           0           0           0           0           0
           0           0      100000           0          -1           0
           0           0           0           0           0           0
           0           0           0           1           0           0
           0 -2000000000           1           0           0           0
           0           0         141          52           0           0
           0           0           5           0           0           0
           0           0           0           0           0           1
           0           0           0           0           0           0
           0           0           0           0           0           0
           0           0           0           0           0           0
           0           0           0           0           0           0
           0           0           0           0
Num RLSW                                   I               52
RLSW                                       R   N=          52
  8.00000000E-01  7.20000000E-01  1.00000000E+00  8.10000000E-01  2.00000000E-01
  0.00000000E+00  0.00000000E+00  1.00000000E+00  0.00000000E+00  0.00000000E+00
  0.00000000E+00  0.00000000E+00  1.00000000E+00  0.00000000E+00  0.00000000E+00
  0.00000000E+00  0.00000000E+00  1.00000000E+00  0.00000000E+00  0.00000000E+00
  0.00000000E+00  0.00000000E+00  1.00000000E+00  0.00000000E+00  0.00000000E+00
  0.00000000E+00  0.00000000E+00  1.00000000E+00  0.00000000E+00  0.00000000E+00
  0.00000000E+00  0.00000000E+00  1.00000000E+00  0.00000000E+00  0.00000000E+00
  0.00000000E+00  0.00000000E+00  0.00000000E+00  1.00000000E+00  1.00000000E+00
  0.00000000E+00  1.00000000E+00  0.00000000E+00  0.00000000E+00  0.00000000E+00
  0.00000000E+00  0.00000000E+00  0.00000000E+00  0.00000000E+00  0.00000000E+00
  0.00000000E+00  0.00000000E+00
MxBond                                     I                4
NBond                                      I   N=          12
           4           2           3           1           2           4
           1           1           1           1           1           1
IBond                                      I   N=          48
           2           7           8           9           1           3
           0           0           2           4           5           0
           3           0           0           0           3           6
           0           0           5          10          11          12
           1           0           0           0           1           0
           0           0           1           0           0           0
           6           0           0           0           6           0
           0           0           6           0           0           0
RBond                                      R   N=          48
  1.00000000E+00  1.00000000E+00  1.00000000E+00  1.00000000E+00  1.00000000E+00
  1.50000000E+00  0.00000000E+00  0.00000000E+00  1.50000000E+00  2.00000000E+00
  1.50000000E+00  0.00000000E+00  2.00000000E+00  0.00000000E+00  0.00000000E+00
  0.00000000E+00  1.50000000E+00  1.00000000E+00  0.00000000E+00  0.00000000E+00
  1.00000000E+00  1.00000000E+00  1.00000000E+00  1.00000000E+00  1.00000000E+00
  0.00000000E+00  0.00000000E+00  0.00000000E+00  1.00000000E+00  0.00000000E+00
  0.00000000E+00  0.00000000E+00  1.00000000E+00  0.00000000E+00  0.00000000E+00
  0.00000000E+00  1.00000000E+00  0.00000000E+00  0.00000000E+00  0.00000000E+00
  1.00000000E+00  0.00000000E+00  0.00000000E+00  0.00000000E+00  1.00000000E+00
  0.00000000E+00  0.00000000E+00  0.00000000E+00
Virial Ratio                               R      2.009212565837864E+00
SCF Energy                                 R     -3.436512334610090E+02
Total Energy                               R     -3.436512334610090E+02
RMS Force                                  R      4.536974807626390E-05
RMS Density                                R      2.682020237866048E-09
NImag                                      I                0
Job Status                                 I                1
Nuclear derivative order                   I                2
PCM-NSphere                                I               12
PCM-NGenSphere                             I               12
PCM-NOrd                                   I   N=          12
           1           2           3           4           5           6
           7           8           9          10          11          12
PCM-SphereRadii                            R   N=          12
  4.00253442E+00  3.63772279E+00  4.00253442E+00  3.63772279E+00  3.63772279E+00
  4.00253442E+00  2.99956228E+00  2.99956228E+00  2.99956228E+00  2.99956228E+00
  2.99956228E+00  2.99956228E+00
PCM-SphereLoc                              R   N=          36
  4.44962330E+00 -3.69313009E-02  3.59226861E-04  2.04731179E+00 -1.33859362E+00
 -1.43911072E-04  2.67114398E-19  1.40494387E-01 -6.69032010E-04  2.72997161E-17
  2.44296623E+00 -1.10039931E-04 -2.04731179E+00 -1.33859362E+00 -1.43969394E-04
 -4.44962330E+00 -3.69313015E-02  3.59278544E-04  5.86653599E+00 -1.52736879E+00
  7.26348759E-04  4.62540770E+00  1.13212148E+00 -1.68973146E+00  4.62465828E+00
  1.13223596E+00  1.69044829E+00 -4.62465386E+00  1.13224454E+00  1.69044281E+00
 -4.62541211E+00  1.13211291E+00 -1.68973693E+00 -5.86653598E+00 -1.52736879E+00
  7.37457746E-04
External E-field                           R   N=          35
  0.00000000E+00  0.00000000E+00  0.00000000E+00  0.00000000E+00  0.00000000E+00
  0.00000000E+00  0.00000000E+00  0.00000000E+00  0.00000000E+00  0.00000000E+00
  0.00000000E+00  0.00000000E+00  0.00000000E+00  0.00000000E+00  0.00000000E+00
  0.00000000E+00  0.00000000E+00  0.00000000E+00  0.00000000E+00  0.00000000E+00
  0.00000000E+00  0.00000000E+00  0.00000000E+00  0.00000000E+00  0.00000000E+00
  0.00000000E+00  0.00000000E+00  0.00000000E+00  0.00000000E+00  0.00000000E+00
  0.00000000E+00  0.00000000E+00  0.00000000E+00  0.00000000E+00  0.00000000E+00
IOpCl                                      I                0
IROHF                                      I                0
Alpha Orbital Energies                     R   N=         150
 -1.92178114E+01 -1.92178076E+01 -1.91609996E+01 -1.03789391E+01 -1.02491367E+01
 -1.02491343E+01 -1.15925811E+00 -1.07127828E+00 -1.03657381E+00 -7.68813472E-01
 -7.05577112E-01 -5.89050667E-01 -5.57073048E-01 -5.19602315E-01 -5.08436220E-01
 -4.66890679E-01 -4.56107656E-01 -4.43822553E-01 -4.11140415E-01 -3.88219158E-01
 -3.73098966E-01 -3.27514995E-01 -3.20476506E-01 -3.09661071E-01 -7.23079257E-03
  9.23779724E-03  1.65430649E-02  2.16021095E-02  2.97319168E-02  3.22960654E-02
  4.19659232E-02  5.13136421E-02  6.81990937E-02  8.68519189E-02  9.28906510E-02
  1.13780937E-01  1.15517228E-01  1.17119460E-01  1.27539201E-01  1.28862848E-01
  1.40392323E-01  1.41378429E-01  1.47910842E-01  1.68310076E-01  1.70343740E-01
  1.88753434E-01  1.99522507E-01  2.09671551E-01  2.22612818E-01  2.34780913E-01
  2.48784690E-01  2.50921741E-01  2.52113243E-01  2.70830686E-01  2.89777533E-01
  2.89904051E-01  3.09295702E-01  3.22839971E-01  3.28640882E-01  3.49350820E-01
  3.49991532E-01  3.77740187E-01  3.83904618E-01  4.10519344E-01  4.64041481E-01
  5.23527449E-01  6.90717244E-01  7.01091716E-01  7.06456633E-01  7.15932851E-01
  7.23398001E-01  7.29392077E-01  7.49970747E-01  7.81659701E-01  8.48891150E-01