EMC_B3LYP_6-31ppgd,p_pcm_Water                                          
Freq      RB3LYP                                                      6-31++G(d,p)        
Number of atoms                            I               15
Info1-9                                    I   N=           9
          24          24        1002           0           0         100
           6          18        -502
Full Title                                 C   N=           3
EMC_B3LYP_6-31ppgd,p_pcm_Water      
Route                                      C   N=           6
# opt freq B3LYP/6-31++g(d,p) em=gd3bj scrf=(pcm,solvent=Wat
er)         
Charge                                     I                0
Multiplicity                               I                1
Number of electrons                        I               56
Number of alpha electrons                  I               28
Number of beta electrons                   I               28
Number of basis functions                  I              181
Number of independent functions            I              181
Number of point charges in /Mol/           I                0
Number of translation vectors              I                0
Atomic numbers                             I   N=          15
           6           6           8           6           8           8
           6           1           1           1           1           1
           1           1           1
Nuclear charges                            R   N=          15
  6.00000000E+00  6.00000000E+00  8.00000000E+00  6.00000000E+00  8.00000000E+00
  8.00000000E+00  6.00000000E+00  1.00000000E+00  1.00000000E+00  1.00000000E+00
  1.00000000E+00  1.00000000E+00  1.00000000E+00  1.00000000E+00  1.00000000E+00
Current cartesian coordinates              R   N=          45
  4.83400791E+00  5.90411341E-01  1.34866132E+00  3.58084342E+00 -5.25324854E-01
 -9.77295469E-01  1.11180462E+00 -1.58557107E+00 -3.63216766E-01 -8.32805638E-01
  2.24943521E-02 -3.16279682E-01 -7.56998322E-01  2.27017826E+00 -8.13016586E-01
 -2.90285090E+00 -1.26166854E+00  3.62210761E-01 -5.20868544E+00  1.96554866E-01
  4.97320785E-01  5.01761873E+00 -8.31981791E-01  2.83746856E+00  6.72800178E+00
  1.25646578E+00  8.48923408E-01  3.75552844E+00  2.19390570E+00  2.07920366E+00
  3.33941053E+00  8.74828719E-01 -2.47237226E+00  4.63357739E+00 -2.13764999E+00
 -1.71161264E+00 -5.01645004E+00  1.70446928E+00  1.89128844E+00 -5.65583017E+00
  9.95086160E-01 -1.35105656E+00 -6.65766138E+00 -1.14344728E+00  1.07589638E+00
Number of symbols in /Mol/                 I                0
Force Field                                I                0
Atom Types                                 C   N=          15
                                                            
                                                            
                                                            
Int Atom Types                             I   N=          15
           0           0           0           0           0           0
           0           0           0           0           0           0
           0           0           0
MM charges                                 R   N=          15
  0.00000000E+00  0.00000000E+00  0.00000000E+00  0.00000000E+00  0.00000000E+00
  0.00000000E+00  0.00000000E+00  0.00000000E+00  0.00000000E+00  0.00000000E+00
  0.00000000E+00  0.00000000E+00  0.00000000E+00  0.00000000E+00  0.00000000E+00
Integer atomic weights                     I   N=          15
          12          12          16          12          16          16
          12           1           1           1           1           1
           1           1           1
Real atomic weights                        R   N=          15
  1.20000000E+01  1.20000000E+01  1.59949146E+01  1.20000000E+01  1.59949146E+01
  1.59949146E+01  1.20000000E+01  1.00782504E+00  1.00782504E+00  1.00782504E+00
  1.00782504E+00  1.00782504E+00  1.00782504E+00  1.00782504E+00  1.00782504E+00
Atom fragment info                         I   N=          15
           0           0           0           0           0           0
           0           0           0           0           0           0
           0           0           0
Atom residue num                           I   N=          15
           0           0           0           0           0           0
           0           0           0           0           0           0
           0           0           0
Nuclear spins                              I   N=          15
           0           0           0           0           0           0
           0           1           1           1           1           1
           1           1           1
Nuclear ZEff                               R   N=          15
 -3.60000000E+00 -3.60000000E+00 -5.60000000E+00 -3.60000000E+00 -5.60000000E+00
 -5.60000000E+00 -3.60000000E+00 -1.00000000E+00 -1.00000000E+00 -1.00000000E+00
 -1.00000000E+00 -1.00000000E+00 -1.00000000E+00 -1.00000000E+00 -1.00000000E+00
Nuclear ZNuc                               R   N=          15
  6.00000000E+00  6.00000000E+00  8.00000000E+00  6.00000000E+00  8.00000000E+00
  8.00000000E+00  6.00000000E+00  1.00000000E+00  1.00000000E+00  1.00000000E+00
  1.00000000E+00  1.00000000E+00  1.00000000E+00  1.00000000E+00  1.00000000E+00
Nuclear QMom                               R   N=          15
  0.00000000E+00  0.00000000E+00  0.00000000E+00  0.00000000E+00  0.00000000E+00
  0.00000000E+00  0.00000000E+00  0.00000000E+00  0.00000000E+00  0.00000000E+00
  0.00000000E+00  0.00000000E+00  0.00000000E+00  0.00000000E+00  0.00000000E+00
Nuclear GFac                               R   N=          15
  0.00000000E+00  0.00000000E+00  0.00000000E+00  0.00000000E+00  0.00000000E+00
  0.00000000E+00  0.00000000E+00  2.79284600E+00  2.79284600E+00  2.79284600E+00
  2.79284600E+00  2.79284600E+00  2.79284600E+00  2.79284600E+00  2.79284600E+00
MicOpt                                     I   N=          15
          -1          -1          -1          -1          -1          -1
          -1          -1          -1          -1          -1          -1
          -1          -1          -1
Number of residues                         I                0
Number of secondary structures             I                0
Redundant internal dimensions              I   N=           4
          56          14          23          19
Redundant internal coordinate indices      I   N=         224
           1           2           0           0           1           8
           0           0           1           9           0           0
           1          10           0           0           2           3
           0           0           2          11           0           0
           2          12           0           0           3           4
           0           0           4           5           0           0
           4           6           0           0           6           7
           0           0           7          13           0           0
           7          14           0           0           7          15
           0           0           2           1           8           0
           2           1           9           0           2           1
          10           0           8           1           9           0
           8           1          10           0           9           1
          10           0           1           2           3           0
           1           2          11           0           1           2
          12           0           3           2          11           0
           3           2          12           0          11           2
          12           0           2           3           4           0
           3           4           5           0           3           4
           6           0           5           4           6           0
           4           6           7           0           6           7
          13           0           6           7          14           0
           6           7          15           0          13           7
          14           0          13           7          15           0
          14           7          15           0           8           1
           2           3           8           1           2          11
           8           1           2          12           9           1
           2           3           9           1           2          11
           9           1           2          12          10           1
           2           3          10           1           2          11
          10           1           2          12           1           2
           3           4          11           2           3           4
          12           2           3           4           2           3
           4           5           2           3           4           6
           3           4           6           7           5           4
           6           7           4           6           7          13
           4           6           7          14           4           6
           7          15
Redundant internal coordinates             R   N=          56
  2.86798945E+00  2.06723538E+00  2.06895608E+00  2.06591487E+00  2.75633222E+00
  2.06251654E+00  2.06084033E+00  2.52380398E+00  2.30316679E+00  2.52873704E+00
  2.73158253E+00  2.06249998E+00  2.06254441E+00  2.05666884E+00  1.93393648E+00
  1.90640774E+00  1.93974569E+00  1.89036277E+00  1.90259925E+00  1.88960141E+00
  1.93945731E+00  1.95512175E+00  1.94995057E+00  1.89416905E+00  1.80906971E+00
  1.90987668E+00  2.03672430E+00  2.20487866E+00  1.88826924E+00  2.19002427E+00
  2.01882806E+00  1.92308436E+00  1.92341542E+00  1.83466251E+00  1.92072924E+00
  1.93037634E+00  1.93009635E+00  9.96680367E-01  3.11866949E+00 -1.01450765E+00
  3.07781559E+00 -1.08338059E+00  1.06662757E+00 -1.12160054E+00  1.00038858E+00
 -3.13278856E+00  1.46478678E+00 -6.92429715E-01 -2.72150161E+00  4.28677807E-02
 -3.10401281E+00 -3.13587562E+00  4.85669519E-04 -1.05709109E+00  1.06583363E+00
 -3.13730182E+00
ZRed-IntVec                                I   N=          56
           0           0           0           0           0           0
           0           0           0           0           0           0
           0           0           0           0           0           0
           0           0           0           0           0           0
           0           0           0           0           0           0
           0           0           0           0           0           0
           0           0           0           0           0           0
           0           0           0           0           0           0
           0           0           0           0           0           0
           0           0
ZRed-FPVec                                 R   N=          56
  0.00000000E+00  0.00000000E+00  0.00000000E+00  0.00000000E+00  0.00000000E+00
  0.00000000E+00  0.00000000E+00  0.00000000E+00  0.00000000E+00  0.00000000E+00
  0.00000000E+00  0.00000000E+00  0.00000000E+00  0.00000000E+00  0.00000000E+00
  0.00000000E+00  0.00000000E+00  0.00000000E+00  0.00000000E+00  0.00000000E+00
  0.00000000E+00  0.00000000E+00  0.00000000E+00  0.00000000E+00  0.00000000E+00
  0.00000000E+00  0.00000000E+00  0.00000000E+00  0.00000000E+00  0.00000000E+00
  0.00000000E+00  0.00000000E+00  0.00000000E+00  0.00000000E+00  0.00000000E+00
  0.00000000E+00  0.00000000E+00  0.00000000E+00  0.00000000E+00  0.00000000E+00
  0.00000000E+00  0.00000000E+00  0.00000000E+00  0.00000000E+00  0.00000000E+00
  0.00000000E+00  0.00000000E+00  0.00000000E+00  0.00000000E+00  0.00000000E+00
  0.00000000E+00  0.00000000E+00  0.00000000E+00  0.00000000E+00  0.00000000E+00
  0.00000000E+00
ZRed-Constraint1                           R   N=          56
  2.86798945E+00  2.06723538E+00  2.06895608E+00  2.06591487E+00  2.75633222E+00
  2.06251654E+00  2.06084033E+00  2.52380398E+00  2.30316679E+00  2.52873704E+00
  2.73158253E+00  2.06249998E+00  2.06254441E+00  2.05666884E+00  1.93393648E+00
  1.90640774E+00  1.93974569E+00  1.89036277E+00  1.90259925E+00  1.88960141E+00
  1.93945731E+00  1.95512175E+00  1.94995057E+00  1.89416905E+00  1.80906971E+00
  1.90987668E+00  2.03672430E+00  2.20487866E+00  1.88826924E+00  2.19002427E+00
  2.01882806E+00  1.92308436E+00  1.92341542E+00  1.83466251E+00  1.92072924E+00
  1.93037634E+00  1.93009635E+00  9.96680367E-01  3.11866949E+00 -1.01450765E+00
  3.07781559E+00 -1.08338059E+00  1.06662757E+00 -1.12160054E+00  1.00038858E+00
 -3.13278856E+00  1.46478678E+00 -6.92429715E-01 -2.72150161E+00  4.28677807E-02
 -3.10401281E+00 -3.13587562E+00  4.85669518E-04 -1.05709109E+00  1.06583363E+00
 -3.13730182E+00
ZRed-Constraint2                           R   N=          56
  2.86730251E+00  2.06917457E+00  2.06670235E+00  2.06845124E+00  2.70763068E+00
  2.07147493E+00  2.06923726E+00  2.56278118E+00  2.30846157E+00  2.56361905E+00
  2.69428365E+00  2.06853835E+00  2.06852989E+00  2.06655127E+00  1.92955911E+00
  1.93324236E+00  1.93810056E+00  1.89943335E+00  1.86601708E+00  1.89567783E+00
  1.92406025E+00  1.94498042E+00  1.91255612E+00  1.94444712E+00  1.86765418E+00
  1.86748328E+00  2.01914031E+00  2.20085187E+00  1.88684797E+00  2.19548309E+00
  1.98693894E+00  1.92991423E+00  1.92994173E+00  1.88641179E+00  1.93293441E+00
  1.89158851E+00  1.89160233E+00  9.76352480E-01 -3.13832022E+00 -1.07477318E+00
  3.08331719E+00 -1.03135551E+00  1.03219153E+00 -1.09193927E+00  1.07657334E+00
  3.14012038E+00  1.51408751E+00 -6.54732367E-01 -2.69041003E+00 -7.27440384E-03
  3.13655917E+00  3.13937774E+00  1.72958709E-05 -1.07351723E+00  1.07383258E+00
 -3.14141869E+00
SymInf integers                            I   N=          26
           1           1           1           1           1           0
           0           0           0           0           0           0
           0           0           0           0           0           0
           0           0           0           0           0           0
           0           0
RotTr to input orientation                 R   N=          12
 -9.92105753E-01  6.77852712E-02  1.05505128E-01 -3.69043133E-02 -9.61881012E-01
  2.70966770E-01  1.19850935E-01  2.64934098E-01  9.56789254E-01  3.77808816E-01
 -1.56491405E-01 -2.76577314E-01
Number of contracted shells                I               67
Number of primitive shells                 I              132
Pure/Cartesian d shells                    I                1
Pure/Cartesian f shells                    I                0
Highest angular momentum                   I                2
Largest degree of contraction              I                6
Shell types                                I   N=          67
           0          -1          -1          -1           2           0
          -1          -1          -1           2           0          -1
          -1          -1           2           0          -1          -1
          -1           2           0          -1          -1          -1
           2           0          -1          -1          -1           2
           0          -1          -1          -1           2           0
           0           0           1           0           0           0
           1           0           0           0           1           0
           0           0           1           0           0           0
           1           0           0           0           1           0
           0           0           1           0           0           0
           1
Number of primitives per shell             I   N=          67
           6           3           1           1           1           6
           3           1           1           1           6           3
           1           1           1           6           3           1
           1           1           6           3           1           1
           1           6           3           1           1           1
           6           3           1           1           1           3
           1           1           1           3           1           1
           1           3           1           1           1           3
           1           1           1           3           1           1
           1           3           1           1           1           3
           1           1           1           3           1           1
           1
Shell to atom map                          I   N=          67
           1           1           1           1           1           2
           2           2           2           2           3           3
           3           3           3           4           4           4
           4           4           5           5           5           5
           5           6           6           6           6           6
           7           7           7           7           7           8
           8           8           8           9           9           9
           9          10          10          10          10          11
          11          11          11          12          12          12
          12          13          13          13          13          14
          14          14          14          15          15          15
          15
Primitive exponents                        R   N=         132
  3.04752488E+03  4.57369518E+02  1.03948685E+02  2.92101553E+01  9.28666296E+00
  3.16392696E+00  7.86827235E+00  1.88128854E+00  5.44249258E-01  1.68714478E-01
  4.38000000E-02  8.00000000E-01  3.04752488E+03  4.57369518E+02  1.03948685E+02
  2.92101553E+01  9.28666296E+00  3.16392696E+00  7.86827235E+00  1.88128854E+00
  5.44249258E-01  1.68714478E-01  4.38000000E-02  8.00000000E-01  5.48467166E+03
  8.25234946E+02  1.88046958E+02  5.29645000E+01  1.68975704E+01  5.79963534E+00
  1.55396162E+01  3.59993359E+00  1.01376175E+00  2.70005823E-01  8.45000000E-02
  8.00000000E-01  3.04752488E+03  4.57369518E+02  1.03948685E+02  2.92101553E+01
  9.28666296E+00  3.16392696E+00  7.86827235E+00  1.88128854E+00  5.44249258E-01
  1.68714478E-01  4.38000000E-02  8.00000000E-01  5.48467166E+03  8.25234946E+02
  1.88046958E+02  5.29645000E+01  1.68975704E+01  5.79963534E+00  1.55396162E+01
  3.59993359E+00  1.01376175E+00  2.70005823E-01  8.45000000E-02  8.00000000E-01
  5.48467166E+03  8.25234946E+02  1.88046958E+02  5.29645000E+01  1.68975704E+01
  5.79963534E+00  1.55396162E+01  3.59993359E+00  1.01376175E+00  2.70005823E-01
  8.45000000E-02  8.00000000E-01  3.04752488E+03  4.57369518E+02  1.03948685E+02
  2.92101553E+01  9.28666296E+00  3.16392696E+00  7.86827235E+00  1.88128854E+00
  5.44249258E-01  1.68714478E-01  4.38000000E-02  8.00000000E-01  1.87311370E+01
  2.82539436E+00  6.40121692E-01  1.61277759E-01  3.60000000E-02  1.10000000E+00
  1.87311370E+01  2.82539436E+00  6.40121692E-01  1.61277759E-01  3.60000000E-02
  1.10000000E+00  1.87311370E+01  2.82539436E+00  6.40121692E-01  1.61277759E-01
  3.60000000E-02  1.10000000E+00  1.87311370E+01  2.82539436E+00  6.40121692E-01
  1.61277759E-01  3.60000000E-02  1.10000000E+00  1.87311370E+01  2.82539436E+00
  6.40121692E-01  1.61277759E-01  3.60000000E-02  1.10000000E+00  1.87311370E+01
  2.82539436E+00  6.40121692E-01  1.61277759E-01  3.60000000E-02  1.10000000E+00
  1.87311370E+01  2.82539436E+00  6.40121692E-01  1.61277759E-01  3.60000000E-02
  1.10000000E+00  1.87311370E+01  2.82539436E+00  6.40121692E-01  1.61277759E-01
  3.60000000E-02  1.10000000E+00
Contraction coefficients                   R   N=         132
  1.83473713E-03  1.40373228E-02  6.88426223E-02  2.32184443E-01  4.67941348E-01
  3.62311985E-01 -1.19332420E-01 -1.60854152E-01  1.14345644E+00  1.00000000E+00
  1.00000000E+00  1.00000000E+00  1.83473713E-03  1.40373228E-02  6.88426223E-02
  2.32184443E-01  4.67941348E-01  3.62311985E-01 -1.19332420E-01 -1.60854152E-01
  1.14345644E+00  1.00000000E+00  1.00000000E+00  1.00000000E+00  1.83107443E-03
  1.39501722E-02  6.84450781E-02  2.32714336E-01  4.70192898E-01  3.58520853E-01
 -1.10777550E-01 -1.48026263E-01  1.13076702E+00  1.00000000E+00  1.00000000E+00
  1.00000000E+00  1.83473713E-03  1.40373228E-02  6.88426223E-02  2.32184443E-01
  4.67941348E-01  3.62311985E-01 -1.19332420E-01 -1.60854152E-01  1.14345644E+00
  1.00000000E+00  1.00000000E+00  1.00000000E+00  1.83107443E-03  1.39501722E-02
  6.84450781E-02  2.32714336E-01  4.70192898E-01  3.58520853E-01 -1.10777550E-01
 -1.48026263E-01  1.13076702E+00  1.00000000E+00  1.00000000E+00  1.00000000E+00
  1.83107443E-03  1.39501722E-02  6.84450781E-02  2.32714336E-01  4.70192898E-01
  3.58520853E-01 -1.10777550E-01 -1.48026263E-01  1.13076702E+00  1.00000000E+00
  1.00000000E+00  1.00000000E+00  1.83473713E-03  1.40373228E-02  6.88426223E-02
  2.32184443E-01  4.67941348E-01  3.62311985E-01 -1.19332420E-01 -1.60854152E-01
  1.14345644E+00  1.00000000E+00  1.00000000E+00  1.00000000E+00  3.34946043E-02
  2.34726953E-01  8.13757326E-01  1.00000000E+00  1.00000000E+00  1.00000000E+00
  3.34946043E-02  2.34726953E-01  8.13757326E-01  1.00000000E+00  1.00000000E+00
  1.00000000E+00  3.34946043E-02  2.34726953E-01  8.13757326E-01  1.00000000E+00
  1.00000000E+00  1.00000000E+00  3.34946043E-02  2.34726953E-01  8.13757326E-01
  1.00000000E+00  1.00000000E+00  1.00000000E+00  3.34946043E-02  2.34726953E-01
  8.13757326E-01  1.00000000E+00  1.00000000E+00  1.00000000E+00  3.34946043E-02
  2.34726953E-01  8.13757326E-01  1.00000000E+00  1.00000000E+00  1.00000000E+00
  3.34946043E-02  2.34726953E-01  8.13757326E-01  1.00000000E+00  1.00000000E+00
  1.00000000E+00  3.34946043E-02  2.34726953E-01  8.13757326E-01  1.00000000E+00
  1.00000000E+00  1.00000000E+00
P(S=P) Contraction coefficients            R   N=         132
  0.00000000E+00  0.00000000E+00  0.00000000E+00  0.00000000E+00  0.00000000E+00
  0.00000000E+00  6.89990666E-02  3.16423961E-01  7.44308291E-01  1.00000000E+00
  1.00000000E+00  0.00000000E+00  0.00000000E+00  0.00000000E+00  0.00000000E+00
  0.00000000E+00  0.00000000E+00  0.00000000E+00  6.89990666E-02  3.16423961E-01
  7.44308291E-01  1.00000000E+00  1.00000000E+00  0.00000000E+00  0.00000000E+00
  0.00000000E+00  0.00000000E+00  0.00000000E+00  0.00000000E+00  0.00000000E+00
  7.08742682E-02  3.39752839E-01  7.27158577E-01  1.00000000E+00  1.00000000E+00
  0.00000000E+00  0.00000000E+00  0.00000000E+00  0.00000000E+00  0.00000000E+00
  0.00000000E+00  0.00000000E+00  6.89990666E-02  3.16423961E-01  7.44308291E-01
  1.00000000E+00  1.00000000E+00  0.00000000E+00  0.00000000E+00  0.00000000E+00
  0.00000000E+00  0.00000000E+00  0.00000000E+00  0.00000000E+00  7.08742682E-02
  3.39752839E-01  7.27158577E-01  1.00000000E+00  1.00000000E+00  0.00000000E+00
  0.00000000E+00  0.00000000E+00  0.00000000E+00  0.00000000E+00  0.00000000E+00
  0.00000000E+00  7.08742682E-02  3.39752839E-01  7.27158577E-01  1.00000000E+00
  1.00000000E+00  0.00000000E+00  0.00000000E+00  0.00000000E+00  0.00000000E+00
  0.00000000E+00  0.00000000E+00  0.00000000E+00  6.89990666E-02  3.16423961E-01
  7.44308291E-01  1.00000000E+00  1.00000000E+00  0.00000000E+00  0.00000000E+00
  0.00000000E+00  0.00000000E+00  0.00000000E+00  0.00000000E+00  0.00000000E+00
  0.00000000E+00  0.00000000E+00  0.00000000E+00  0.00000000E+00  0.00000000E+00
  0.00000000E+00  0.00000000E+00  0.00000000E+00  0.00000000E+00  0.00000000E+00
  0.00000000E+00  0.00000000E+00  0.00000000E+00  0.00000000E+00  0.00000000E+00
  0.00000000E+00  0.00000000E+00  0.00000000E+00  0.00000000E+00  0.00000000E+00
  0.00000000E+00  0.00000000E+00  0.00000000E+00  0.00000000E+00  0.00000000E+00
  0.00000000E+00  0.00000000E+00  0.00000000E+00  0.00000000E+00  0.00000000E+00
  0.00000000E+00  0.00000000E+00  0.00000000E+00  0.00000000E+00  0.00000000E+00
  0.00000000E+00  0.00000000E+00  0.00000000E+00  0.00000000E+00  0.00000000E+00
  0.00000000E+00  0.00000000E+00
Coordinates of each shell                  R   N=         201
  4.83400791E+00  5.90411341E-01  1.34866132E+00  4.83400791E+00  5.90411341E-01
  1.34866132E+00  4.83400791E+00  5.90411341E-01  1.34866132E+00  4.83400791E+00
  5.90411341E-01  1.34866132E+00  4.83400791E+00  5.90411341E-01  1.34866132E+00
  3.58084342E+00 -5.25324854E-01 -9.77295469E-01  3.58084342E+00 -5.25324854E-01
 -9.77295469E-01  3.58084342E+00 -5.25324854E-01 -9.77295469E-01  3.58084342E+00
 -5.25324854E-01 -9.77295469E-01  3.58084342E+00 -5.25324854E-01 -9.77295469E-01
  1.11180462E+00 -1.58557107E+00 -3.63216766E-01  1.11180462E+00 -1.58557107E+00
 -3.63216766E-01  1.11180462E+00 -1.58557107E+00 -3.63216766E-01  1.11180462E+00
 -1.58557107E+00 -3.63216766E-01  1.11180462E+00 -1.58557107E+00 -3.63216766E-01
 -8.32805638E-01  2.24943521E-02 -3.16279682E-01 -8.32805638E-01  2.24943521E-02
 -3.16279682E-01 -8.32805638E-01  2.24943521E-02 -3.16279682E-01 -8.32805638E-01
  2.24943521E-02 -3.16279682E-01 -8.32805638E-01  2.24943521E-02 -3.16279682E-01
 -7.56998322E-01  2.27017826E+00 -8.13016586E-01 -7.56998322E-01  2.27017826E+00
 -8.13016586E-01 -7.56998322E-01  2.27017826E+00 -8.13016586E-01 -7.56998322E-01
  2.27017826E+00 -8.13016586E-01 -7.56998322E-01  2.27017826E+00 -8.13016586E-01
 -2.90285090E+00 -1.26166854E+00  3.62210761E-01 -2.90285090E+00 -1.26166854E+00
  3.62210761E-01 -2.90285090E+00 -1.26166854E+00  3.62210761E-01 -2.90285090E+00
 -1.26166854E+00  3.62210761E-01 -2.90285090E+00 -1.26166854E+00  3.62210761E-01
 -5.20868544E+00  1.96554866E-01  4.97320785E-01 -5.20868544E+00  1.96554866E-01
  4.97320785E-01 -5.20868544E+00  1.96554866E-01  4.97320785E-01 -5.20868544E+00
  1.96554866E-01  4.97320785E-01 -5.20868544E+00  1.96554866E-01  4.97320785E-01
  5.01761873E+00 -8.31981791E-01  2.83746856E+00  5.01761873E+00 -8.31981791E-01
  2.83746856E+00  5.01761873E+00 -8.31981791E-01  2.83746856E+00  5.01761873E+00
 -8.31981791E-01  2.83746856E+00  6.72800178E+00  1.25646578E+00  8.48923408E-01
  6.72800178E+00  1.25646578E+00  8.48923408E-01  6.72800178E+00  1.25646578E+00
  8.48923408E-01  6.72800178E+00  1.25646578E+00  8.48923408E-01  3.75552844E+00
  2.19390570E+00  2.07920366E+00  3.75552844E+00  2.19390570E+00  2.07920366E+00
  3.75552844E+00  2.19390570E+00  2.07920366E+00  3.75552844E+00  2.19390570E+00
  2.07920366E+00  3.33941053E+00  8.74828719E-01 -2.47237226E+00  3.33941053E+00
  8.74828719E-01 -2.47237226E+00  3.33941053E+00  8.74828719E-01 -2.47237226E+00
  3.33941053E+00  8.74828719E-01 -2.47237226E+00  4.63357739E+00 -2.13764999E+00
 -1.71161264E+00  4.63357739E+00 -2.13764999E+00 -1.71161264E+00  4.63357739E+00
 -2.13764999E+00 -1.71161264E+00  4.63357739E+00 -2.13764999E+00 -1.71161264E+00
 -5.01645004E+00  1.70446928E+00  1.89128844E+00 -5.01645004E+00  1.70446928E+00
  1.89128844E+00 -5.01645004E+00  1.70446928E+00  1.89128844E+00 -5.01645004E+00
  1.70446928E+00  1.89128844E+00 -5.65583017E+00  9.95086160E-01 -1.35105656E+00
 -5.65583017E+00  9.95086160E-01 -1.35105656E+00 -5.65583017E+00  9.95086160E-01
 -1.35105656E+00 -5.65583017E+00  9.95086160E-01 -1.35105656E+00 -6.65766138E+00
 -1.14344728E+00  1.07589638E+00 -6.65766138E+00 -1.14344728E+00  1.07589638E+00
 -6.65766138E+00 -1.14344728E+00  1.07589638E+00 -6.65766138E+00 -1.14344728E+00
  1.07589638E+00
Num ILSW                                   I              100
ILSW                                       I   N=         100
           0           1           0           0           2           0
           0           0           0           0         402          -1
           5           0           0           0           2           0
           0           0           1           0           1           0
           1           0           0           0           0           0
           0           0      100000           0          -1           0
           0           0           0           0           0           0
           0           0           0           1           0           0
           0 -2000000000           1           0           0           0
           0           0         141          52           0           0
           0           0           5           0           0           0
           0           0           0           0           0           1
           0           0           0           0           0           0
           0           0           0           0           0           0
           0           0           0           0           0           0
           0           0           0           0           0           0
           0           0           0           0
Num RLSW                                   I               52
RLSW                                       R   N=          52
  8.00000000E-01  7.20000000E-01  1.00000000E+00  8.10000000E-01  2.00000000E-01
  0.00000000E+00  0.00000000E+00  1.00000000E+00  0.00000000E+00  0.00000000E+00
  0.00000000E+00  0.00000000E+00  1.00000000E+00  0.00000000E+00  0.00000000E+00
  0.00000000E+00  0.00000000E+00  1.00000000E+00  0.00000000E+00  0.00000000E+00
  0.00000000E+00  0.00000000E+00  1.00000000E+00  0.00000000E+00  0.00000000E+00
  0.00000000E+00  0.00000000E+00  1.00000000E+00  0.00000000E+00  0.00000000E+00
  0.00000000E+00  0.00000000E+00  1.00000000E+00  0.00000000E+00  0.00000000E+00
  0.00000000E+00  0.00000000E+00  0.00000000E+00  1.00000000E+00  1.00000000E+00
  0.00000000E+00  1.00000000E+00  0.00000000E+00  0.00000000E+00  0.00000000E+00
  0.00000000E+00  0.00000000E+00  0.00000000E+00  0.00000000E+00  0.00000000E+00
  0.00000000E+00  0.00000000E+00
MxBond                                     I                4
NBond                                      I   N=          15
           4           4           2           3           1           2
           4           1           1           1           1           1