Acetone                                                                 
Freq      RB3LYP                                                      6-31G(d)            
Number of atoms                            I               10
Info1-9                                    I   N=           9
          19          19        1002           0           0         100
           6          18        -502
Full Title                                 C   N=           1
Acetone     
Route                                      C   N=           3
# opt freq B3LYP/6-31G(d) em=gd3bj  
Charge                                     I                0
Multiplicity                               I                1
Number of electrons                        I               32
Number of alpha electrons                  I               16
Number of beta electrons                   I               16
Number of basis functions                  I               72
Number of independent functions            I               72
Number of point charges in /Mol/           I                0
Number of translation vectors              I                0
Atomic numbers                             I   N=          10
           6           6           8           6           1           1
           1           1           1           1
Nuclear charges                            R   N=          10
  6.00000000E+00  6.00000000E+00  8.00000000E+00  6.00000000E+00  1.00000000E+00
  1.00000000E+00  1.00000000E+00  1.00000000E+00  1.00000000E+00  1.00000000E+00
Current cartesian coordinates              R   N=          30
 -2.43917909E+00 -1.16239790E+00  3.69419040E-07  5.96484061E-17  3.51688522E-01
 -3.97257601E-06  1.67556100E-16  2.64868589E+00  1.01338241E-06  2.43917908E+00
 -1.16239792E+00  5.69664703E-07 -4.05800559E+00  1.15891684E-01 -5.07491765E-06
 -2.52520064E+00 -2.39564978E+00  1.66453440E+00 -2.52519910E+00 -2.39566351E+00
 -1.66452343E+00  2.52519578E+00 -2.39565916E+00  1.66452786E+00  2.52520391E+00
 -2.39565416E+00 -1.66452997E+00  4.05800559E+00  1.15891648E-01  6.31194668E-06
Number of symbols in /Mol/                 I                0
Force Field                                I                0
Atom Types                                 C   N=          10
                                                            
                                                            
Int Atom Types                             I   N=          10
           0           0           0           0           0           0
           0           0           0           0
MM charges                                 R   N=          10
  0.00000000E+00  0.00000000E+00  0.00000000E+00  0.00000000E+00  0.00000000E+00
  0.00000000E+00  0.00000000E+00  0.00000000E+00  0.00000000E+00  0.00000000E+00
Integer atomic weights                     I   N=          10
          12          12          16          12           1           1
           1           1           1           1
Real atomic weights                        R   N=          10
  1.20000000E+01  1.20000000E+01  1.59949146E+01  1.20000000E+01  1.00782504E+00
  1.00782504E+00  1.00782504E+00  1.00782504E+00  1.00782504E+00  1.00782504E+00
Atom fragment info                         I   N=          10
           0           0           0           0           0           0
           0           0           0           0
Atom residue num                           I   N=          10
           0           0           0           0           0           0
           0           0           0           0
Nuclear spins                              I   N=          10
           0           0           0           0           1           1
           1           1           1           1
Nuclear ZEff                               R   N=          10
 -3.60000000E+00 -3.60000000E+00 -5.60000000E+00 -3.60000000E+00 -1.00000000E+00
 -1.00000000E+00 -1.00000000E+00 -1.00000000E+00 -1.00000000E+00 -1.00000000E+00
Nuclear ZNuc                               R   N=          10
  6.00000000E+00  6.00000000E+00  8.00000000E+00  6.00000000E+00  1.00000000E+00
  1.00000000E+00  1.00000000E+00  1.00000000E+00  1.00000000E+00  1.00000000E+00
Nuclear QMom                               R   N=          10
  0.00000000E+00  0.00000000E+00  0.00000000E+00  0.00000000E+00  0.00000000E+00
  0.00000000E+00  0.00000000E+00  0.00000000E+00  0.00000000E+00  0.00000000E+00
Nuclear GFac                               R   N=          10
  0.00000000E+00  0.00000000E+00  0.00000000E+00  0.00000000E+00  2.79284600E+00
  2.79284600E+00  2.79284600E+00  2.79284600E+00  2.79284600E+00  2.79284600E+00
MicOpt                                     I   N=          10
          -1          -1          -1          -1          -1          -1
          -1          -1          -1          -1
Number of residues                         I                0
Number of secondary structures             I                0
Redundant internal dimensions              I   N=           4
          36           9          15          12
Redundant internal coordinate indices      I   N=         144
           1           2           0           0           1           5
           0           0           1           6           0           0
           1           7           0           0           2           3
           0           0           2           4           0           0
           4           8           0           0           4           9
           0           0           4          10           0           0
           2           1           5           0           2           1
           6           0           2           1           7           0
           5           1           6           0           5           1
           7           0           6           1           7           0
           1           2           3           0           1           2
           4           0           3           2           4           0
           2           4           8           0           2           4
           9           0           2           4          10           0
           8           4           9           0           8           4
          10           0           9           4          10           0
           5           1           2           3           5           1
           2           4           6           1           2           3
           6           1           2           4           7           1
           2           3           7           1           2           4
           1           2           4           8           1           2
           4           9           1           2           4          10
           3           2           4           8           3           2
           4           9           3           2           4          10
Redundant internal coordinates             R   N=          36
  2.87089748E+00  2.06267387E+00  2.07339901E+00  2.07339889E+00  2.29699736E+00
  2.87089748E+00  2.07339896E+00  2.07339894E+00  2.06267387E+00  1.91767377E+00
  1.92723757E+00  1.92723804E+00  1.91351807E+00  1.91351857E+00  1.86395988E+00
  2.12632356E+00  2.03053818E+00  2.12632357E+00  1.92723806E+00  1.92723755E+00
  1.91767377E+00  1.86395988E+00  1.91351837E+00  1.91351827E+00  6.84699844E-06
 -3.14159181E+00 -2.11285036E+00  1.02873628E+00  2.11286499E+00 -1.02873367E+00
 -1.02872989E+00  1.02874007E+00 -3.14158779E+00  2.11285675E+00 -2.11285859E+00
 -1.14854995E-06
ZRed-IntVec                                I   N=          36
           0           0           0           0           0           0
           0           0           0           0           0           0
           0           0           0           0           0           0
           0           0           0           0           0           0
           0           0           0           0           0           0
           0           0           0           0           0           0
ZRed-FPVec                                 R   N=          36
  0.00000000E+00  0.00000000E+00  0.00000000E+00  0.00000000E+00  0.00000000E+00
  0.00000000E+00  0.00000000E+00  0.00000000E+00  0.00000000E+00  0.00000000E+00
  0.00000000E+00  0.00000000E+00  0.00000000E+00  0.00000000E+00  0.00000000E+00
  0.00000000E+00  0.00000000E+00  0.00000000E+00  0.00000000E+00  0.00000000E+00
  0.00000000E+00  0.00000000E+00  0.00000000E+00  0.00000000E+00  0.00000000E+00
  0.00000000E+00  0.00000000E+00  0.00000000E+00  0.00000000E+00  0.00000000E+00
  0.00000000E+00  0.00000000E+00  0.00000000E+00  0.00000000E+00  0.00000000E+00
  0.00000000E+00
ZRed-Constraint1                           R   N=          36
  2.87089748E+00  2.06267387E+00  2.07339901E+00  2.07339889E+00  2.29699736E+00
  2.87089748E+00  2.07339896E+00  2.07339894E+00  2.06267387E+00  1.91767377E+00
  1.92723757E+00  1.92723804E+00  1.91351807E+00  1.91351857E+00  1.86395988E+00
  2.12632357E+00  2.03053818E+00  2.12632356E+00  1.92723806E+00  1.92723755E+00
  1.91767377E+00  1.86395988E+00  1.91351837E+00  1.91351827E+00  6.84698223E-06
 -3.14159181E+00 -2.11285036E+00  1.02873628E+00  2.11286499E+00 -1.02873367E+00
 -1.02872989E+00  1.02874007E+00 -3.14158779E+00  2.11285675E+00 -2.11285859E+00
 -1.14864661E-06
ZRed-Constraint2                           R   N=          36
  2.84359518E+00  2.06645660E+00  2.06501204E+00  2.06501258E+00  2.32448171E+00
  2.84359502E+00  2.06501188E+00  2.06501246E+00  2.06645672E+00  1.91483254E+00
  1.91258446E+00  1.91258405E+00  1.90011072E+00  1.90010920E+00  1.92351384E+00
  2.12295600E+00  2.03727332E+00  2.12295599E+00  1.91258480E+00  1.91258499E+00
  1.91483216E+00  1.92351482E+00  1.90010832E+00  1.90010970E+00  6.85838793E-06
 -3.14158592E+00 -2.08526094E+00  1.05633158E+00  2.08527256E+00 -1.05632023E+00
 -1.05632570E+00  1.05632812E+00 -3.14159054E+00  2.08526682E+00 -2.08526467E+00
  1.98599555E-06
SymInf integers                            I   N=          26
           1           1           1           1           1           0
           0           0           0           0           0           0
           0           0           0           0           0           0
           0           0           0           0           0           0
           0           0
RotTr to input orientation                 R   N=          12
 -9.80798795E-01  1.95018185E-01 -1.27676891E-03  1.94844110E-01  9.79601473E-01
 -4.91602202E-02 -8.33641224E-03 -4.84650557E-02 -9.98790089E-01  1.69032423E-01
  8.49830248E-01 -4.26469862E-02
Number of contracted shells                I               28
Number of primitive shells                 I               68
Pure/Cartesian d shells                    I                1
Pure/Cartesian f shells                    I                0
Highest angular momentum                   I                2
Largest degree of contraction              I                6
Shell types                                I   N=          28
           0          -1          -1           2           0          -1
          -1           2           0          -1          -1           2
           0          -1          -1           2           0           0
           0           0           0           0           0           0
           0           0           0           0
Number of primitives per shell             I   N=          28
           6           3           1           1           6           3
           1           1           6           3           1           1
           6           3           1           1           3           1
           3           1           3           1           3           1
           3           1           3           1
Shell to atom map                          I   N=          28
           1           1           1           1           2           2
           2           2           3           3           3           3
           4           4           4           4           5           5
           6           6           7           7           8           8
           9           9          10          10
Primitive exponents                        R   N=          68
  3.04752488E+03  4.57369518E+02  1.03948685E+02  2.92101553E+01  9.28666296E+00
  3.16392696E+00  7.86827235E+00  1.88128854E+00  5.44249258E-01  1.68714478E-01
  8.00000000E-01  3.04752488E+03  4.57369518E+02  1.03948685E+02  2.92101553E+01
  9.28666296E+00  3.16392696E+00  7.86827235E+00  1.88128854E+00  5.44249258E-01
  1.68714478E-01  8.00000000E-01  5.48467166E+03  8.25234946E+02  1.88046958E+02
  5.29645000E+01  1.68975704E+01  5.79963534E+00  1.55396162E+01  3.59993359E+00
  1.01376175E+00  2.70005823E-01  8.00000000E-01  3.04752488E+03  4.57369518E+02
  1.03948685E+02  2.92101553E+01  9.28666296E+00  3.16392696E+00  7.86827235E+00
  1.88128854E+00  5.44249258E-01  1.68714478E-01  8.00000000E-01  1.87311370E+01
  2.82539436E+00  6.40121692E-01  1.61277759E-01  1.87311370E+01  2.82539436E+00
  6.40121692E-01  1.61277759E-01  1.87311370E+01  2.82539436E+00  6.40121692E-01
  1.61277759E-01  1.87311370E+01  2.82539436E+00  6.40121692E-01  1.61277759E-01
  1.87311370E+01  2.82539436E+00  6.40121692E-01  1.61277759E-01  1.87311370E+01
  2.82539436E+00  6.40121692E-01  1.61277759E-01
Contraction coefficients                   R   N=          68
  1.83473713E-03  1.40373228E-02  6.88426223E-02  2.32184443E-01  4.67941348E-01
  3.62311985E-01 -1.19332420E-01 -1.60854152E-01  1.14345644E+00  1.00000000E+00
  1.00000000E+00  1.83473713E-03  1.40373228E-02  6.88426223E-02  2.32184443E-01
  4.67941348E-01  3.62311985E-01 -1.19332420E-01 -1.60854152E-01  1.14345644E+00
  1.00000000E+00  1.00000000E+00  1.83107443E-03  1.39501722E-02  6.84450781E-02
  2.32714336E-01  4.70192898E-01  3.58520853E-01 -1.10777550E-01 -1.48026263E-01
  1.13076702E+00  1.00000000E+00  1.00000000E+00  1.83473713E-03  1.40373228E-02
  6.88426223E-02  2.32184443E-01  4.67941348E-01  3.62311985E-01 -1.19332420E-01
 -1.60854152E-01  1.14345644E+00  1.00000000E+00  1.00000000E+00  3.34946043E-02
  2.34726953E-01  8.13757326E-01  1.00000000E+00  3.34946043E-02  2.34726953E-01
  8.13757326E-01  1.00000000E+00  3.34946043E-02  2.34726953E-01  8.13757326E-01
  1.00000000E+00  3.34946043E-02  2.34726953E-01  8.13757326E-01  1.00000000E+00
  3.34946043E-02  2.34726953E-01  8.13757326E-01  1.00000000E+00  3.34946043E-02
  2.34726953E-01  8.13757326E-01  1.00000000E+00
P(S=P) Contraction coefficients            R   N=          68
  0.00000000E+00  0.00000000E+00  0.00000000E+00  0.00000000E+00  0.00000000E+00
  0.00000000E+00  6.89990666E-02  3.16423961E-01  7.44308291E-01  1.00000000E+00
  0.00000000E+00  0.00000000E+00  0.00000000E+00  0.00000000E+00  0.00000000E+00
  0.00000000E+00  0.00000000E+00  6.89990666E-02  3.16423961E-01  7.44308291E-01
  1.00000000E+00  0.00000000E+00  0.00000000E+00  0.00000000E+00  0.00000000E+00
  0.00000000E+00  0.00000000E+00  0.00000000E+00  7.08742682E-02  3.39752839E-01
  7.27158577E-01  1.00000000E+00  0.00000000E+00  0.00000000E+00  0.00000000E+00
  0.00000000E+00  0.00000000E+00  0.00000000E+00  0.00000000E+00  6.89990666E-02
  3.16423961E-01  7.44308291E-01  1.00000000E+00  0.00000000E+00  0.00000000E+00
  0.00000000E+00  0.00000000E+00  0.00000000E+00  0.00000000E+00  0.00000000E+00
  0.00000000E+00  0.00000000E+00  0.00000000E+00  0.00000000E+00  0.00000000E+00
  0.00000000E+00  0.00000000E+00  0.00000000E+00  0.00000000E+00  0.00000000E+00
  0.00000000E+00  0.00000000E+00  0.00000000E+00  0.00000000E+00  0.00000000E+00
  0.00000000E+00  0.00000000E+00  0.00000000E+00
Coordinates of each shell                  R   N=          84
 -2.43917909E+00 -1.16239790E+00  3.69419040E-07 -2.43917909E+00 -1.16239790E+00
  3.69419040E-07 -2.43917909E+00 -1.16239790E+00  3.69419040E-07 -2.43917909E+00
 -1.16239790E+00  3.69419040E-07  1.63358344E-17  3.51688522E-01 -3.97257601E-06
  1.63358344E-17  3.51688522E-01 -3.97257601E-06  1.63358344E-17  3.51688522E-01
 -3.97257601E-06  1.63358344E-17  3.51688522E-01 -3.97257601E-06  1.05306230E-16
  2.64868589E+00  1.01338241E-06  1.05306230E-16  2.64868589E+00  1.01338241E-06
  1.05306230E-16  2.64868589E+00  1.01338241E-06  1.05306230E-16  2.64868589E+00
  1.01338241E-06  2.43917908E+00 -1.16239792E+00  5.69664703E-07  2.43917908E+00
 -1.16239792E+00  5.69664703E-07  2.43917908E+00 -1.16239792E+00  5.69664703E-07
  2.43917908E+00 -1.16239792E+00  5.69664703E-07 -4.05800559E+00  1.15891684E-01
 -5.07491765E-06 -4.05800559E+00  1.15891684E-01 -5.07491765E-06 -2.52520064E+00
 -2.39564978E+00  1.66453440E+00 -2.52520064E+00 -2.39564978E+00  1.66453440E+00
 -2.52519910E+00 -2.39566351E+00 -1.66452343E+00 -2.52519910E+00 -2.39566351E+00
 -1.66452343E+00  2.52519578E+00 -2.39565916E+00  1.66452786E+00  2.52519578E+00
 -2.39565916E+00  1.66452786E+00  2.52520391E+00 -2.39565416E+00 -1.66452997E+00
  2.52520391E+00 -2.39565416E+00 -1.66452997E+00  4.05800559E+00  1.15891648E-01
  6.31194668E-06  4.05800559E+00  1.15891648E-01  6.31194668E-06
Num ILSW                                   I              100
ILSW                                       I   N=         100
           0           1           0           0           2           0
           0           0           0           0         402          -1
           5           0           0           0           2           0
           0           0           1           0           1           0
           1           0           0           0           0           0
           0           0      100000           0          -1           0
           0           0           0           0           0           0
           0           0           0           1           0           0
           0 -2000000000           1           0           0           0
           0           0         141          52           0           0
           0           0           5           0           0           0
           0           0           0           0           0           1
           0           0           0           0           0           0
           0           0           0           0           0           0
           0           0           0           0           0           0
           0           0           0           0           0           0
           0           0           0           0
Num RLSW                                   I               52
RLSW                                       R   N=          52
  8.00000000E-01  7.20000000E-01  1.00000000E+00  8.10000000E-01  2.00000000E-01
  0.00000000E+00  0.00000000E+00  1.00000000E+00  0.00000000E+00  0.00000000E+00
  0.00000000E+00  0.00000000E+00  1.00000000E+00  0.00000000E+00  0.00000000E+00
  0.00000000E+00  0.00000000E+00  1.00000000E+00  0.00000000E+00  0.00000000E+00
  0.00000000E+00  0.00000000E+00  1.00000000E+00  0.00000000E+00  0.00000000E+00
  0.00000000E+00  0.00000000E+00  1.00000000E+00  0.00000000E+00  0.00000000E+00
  0.00000000E+00  0.00000000E+00  1.00000000E+00  0.00000000E+00  0.00000000E+00
  0.00000000E+00  0.00000000E+00  0.00000000E+00  1.00000000E+00  1.00000000E+00
  0.00000000E+00  1.00000000E+00  0.00000000E+00  0.00000000E+00  0.00000000E+00
  0.00000000E+00  0.00000000E+00  0.00000000E+00  0.00000000E+00  0.00000000E+00
  0.00000000E+00  0.00000000E+00
MxBond                                     I                4
NBond                                      I   N=          10
           4           3           1           4           1           1
           1           1           1           1
IBond                                      I   N=          40
           2           5           6           7           1           3
           4           0           2           0           0           0
           2           8           9          10           1           0
           0           0           1           0           0           0
           1           0           0           0           4           0
           0           0           4           0           0           0
           4           0           0           0
RBond                                      R   N=          40
  1.00000000E+00  1.00000000E+00  1.00000000E+00  1.00000000E+00  1.00000000E+00
  2.00000000E+00  1.00000000E+00  0.00000000E+00  2.00000000E+00  0.00000000E+00
  0.00000000E+00  0.00000000E+00  1.00000000E+00  1.00000000E+00  1.00000000E+00
  1.00000000E+00  1.00000000E+00  0.00000000E+00  0.00000000E+00  0.00000000E+00
  1.00000000E+00  0.00000000E+00  0.00000000E+00  0.00000000E+00  1.00000000E+00
  0.00000000E+00  0.00000000E+00  0.00000000E+00  1.00000000E+00  0.00000000E+00
  0.00000000E+00  0.00000000E+00  1.00000000E+00  0.00000000E+00  0.00000000E+00
  0.00000000E+00  1.00000000E+00  0.00000000E+00  0.00000000E+00  0.00000000E+00
Virial Ratio                               R      2.009475084669041E+00
SCF Energy                                 R     -1.931655712254214E+02
Total Energy                               R     -1.931655712254214E+02
RMS Force                                  R      2.351836941049405E-05
RMS Density                                R      1.597796629485559E-09
NImag                                      I                0
Job Status                                 I                1
Nuclear derivative order                   I                2
External E-field                           R   N=          35
  0.00000000E+00  0.00000000E+00  0.00000000E+00  0.00000000E+00  0.00000000E+00
  0.00000000E+00  0.00000000E+00  0.00000000E+00  0.00000000E+00  0.00000000E+00
  0.00000000E+00  0.00000000E+00  0.00000000E+00  0.00000000E+00  0.00000000E+00
  0.00000000E+00  0.00000000E+00  0.00000000E+00  0.00000000E+00  0.00000000E+00
  0.00000000E+00  0.00000000E+00  0.00000000E+00  0.00000000E+00  0.00000000E+00
  0.00000000E+00  0.00000000E+00  0.00000000E+00  0.00000000E+00  0.00000000E+00
  0.00000000E+00  0.00000000E+00  0.00000000E+00  0.00000000E+00  0.00000000E+00
IOpCl                                      I                0
IROHF                                      I                0
Alpha Orbital Energies                     R   N=          72
 -1.91356954E+01 -1.02773748E+01 -1.01906224E+01 -1.01906113E+01 -1.03562092E+00
 -7.67536653E-01 -7.09778084E-01 -5.30731353E-01 -4.58217606E-01 -4.57583390E-01
 -4.48011870E-01 -4.03984061E-01 -3.93076787E-01 -3.78551905E-01 -3.46936710E-01
 -2.44132610E-01 -1.10198789E-02  8.76703066E-02  1.37468793E-01  1.48481650E-01
  1.60825823E-01  1.71106362E-01  1.80611873E-01  1.98844995E-01  2.90513504E-01
  3.23429051E-01  4.92883379E-01  5.36955737E-01  5.64455732E-01  5.73820484E-01
  5.75794842E-01  6.92114748E-01  7.00885223E-01  7.07433557E-01  7.70700569E-01
  7.85292740E-01  8.33121737E-01  8.74707743E-01  8.85732191E-01  8.98779756E-01
  9.20488104E-01  9.38182002E-01  9.60603892E-01  1.01844158E+00  1.10024252E+00
  1.17849011E+00  1.40490582E+00  1.42344518E+00  1.42721519E+00  1.56291227E+00
  1.76522757E+00  1.77886865E+00  1.79055319E+00  1.80480156E+00  1.90947690E+00
  1.93507359E+00  2.02832655E+00  2.07442774E+00  2.11827546E+00  2.19867341E+00
  2.20728814E+00  2.36125795E+00  2.40911273E+00  2.48460072E+00  2.59777599E+00
  2.69328834E+00  2.95650824E+00  2.97806285E+00  3.94638378E+00  4.08985786E+00
  4.27065732E+00  4.44370483E+00
Alpha MO coefficients                      R   N=        5184
  7.95011978E-06  8.57324360E-05  1.16369567E-05 -9.79977070E-06  3.19224335E-10
 -7.06963765E-04 -7.47196001E-04  4.36997458E-04  6.93619084E-10 -4.09151360E-05
  1.44449724E-05 -5.09127839E-06 -5.30800734E-06  4.36735412E-10 -5.67463574E-10
 -1.16787705E-05  4.01466719E-04 -1.41857436E-12 -3.54089799E-05 -5.93443236E-11
 -2.72955656E-03  7.67778217E-12 -4.03920092E-03 -6.07792956E-09 -3.29348467E-05
 -9.20625151E-04 -5.28082770E-05  8.20852647E-13 -3.53729720E-11 -2.58520437E-09
  9.92719776E-01  2.55482785E-02  2.20677927E-13 -1.14112911E-03 -2.59889397E-09
  1.47659433E-02 -2.09582506E-12 -1.87307491E-03 -4.99602742E-09 -8.22202085E-03
 -7.64040187E-03 -8.24872108E-03  5.90626994E-13  3.27047462E-11  1.60026628E-09
  7.95011989E-06  8.57324331E-05 -1.16369571E-05 -9.79977022E-06  1.46505045E-12
 -7.06963791E-04  7.47196007E-04  4.36997446E-04  2.11635830E-09 -4.09151325E-05
  1.44449754E-05 -5.09127849E-06  5.30800613E-06 -2.26732536E-10 -1.51309748E-10
  1.42917831E-05 -3.60288752E-04  2.79623748E-05  1.11939377E-04  2.79634671E-05
  1.11937643E-04  2.79626487E-05  1.11939783E-04  2.79631940E-05  1.11937237E-04
  1.42917823E-05 -3.60288743E-04  1.22083062E-03 -9.89714084E-05 -1.82768657E-04
 -1.99764286E-04  5.25788866E-10  3.73015708E-03  2.00133712E-03  5.06814932E-04
 -2.13976320E-09 -3.00336019E-04 -3.44332883E-04 -5.49373875E-05 -2.23237235E-04
  7.10519482E-10  1.22704545E-09  9.92928243E-01  4.87282081E-02  1.10388498E-12
  7.72314179E-04  2.36517405E-09 -1.02733540E-02 -6.36389335E-12  4.76964387E-03
 -8.68635144E-09 -9.30487552E-03 -8.19109430E-03 -9.45653437E-03 -2.35145510E-12
 -2.50316275E-10  2.50630157E-09 -9.92533990E-05  5.76503088E-04 -9.54542712E-13
  3.91939560E-05 -6.70927610E-10 -3.97641424E-03  6.19235236E-12  2.24014786E-03
  1.08155524E-08  3.75352402E-04 -2.56989472E-04  5.56970431E-04 -2.14325200E-12
 -8.26240802E-11 -3.51385004E-09  1.22083063E-03 -9.89714059E-05  1.82768655E-04
 -1.99764287E-04 -4.53521758E-10  3.73015710E-03 -2.00133712E-03  5.06814962E-04
  3.69676436E-09 -3.00336018E-04 -3.44332886E-04 -5.49373863E-05  2.23237236E-04
 -1.00196672E-09  5.10596174E-10 -7.29282178E-05  1.81368198E-04 -1.68069656E-04
  1.55287270E-04 -1.68069461E-04  1.55286008E-04 -1.68069443E-04  1.55281015E-04
 -1.68069674E-04  1.55292273E-04 -7.29282182E-05  1.81368196E-04 -7.02115279E-01
 -3.58500680E-02 -1.66034516E-04  1.65585368E-04 -9.37861801E-10  1.40375198E-02
  1.47782374E-03  4.97564279E-04  3.34231629E-10  6.47856294E-03  6.50906750E-03
  6.38171821E-03  9.21133169E-05 -4.12603127E-10 -4.29544561E-10 -4.44980665E-08
 -8.02877297E-09 -2.67677325E-04  7.69147380E-10 -1.97250650E-10  1.18270440E-07
  4.72284497E-03 -2.73638472E-08 -4.59010711E-10 -1.06875054E-08 -6.81514283E-09
 -4.09062704E-09  2.23965159E-04 -1.47532636E-10  2.06881586E-10 -5.73740532E-10
 -3.34091973E-09  2.93905399E-05  6.28159142E-10  1.32614570E-10  3.74645513E-09
 -7.22248133E-04 -3.37624457E-09 -4.44873615E-10 -5.44641358E-10  1.05986293E-09
 -4.62325073E-09  9.98168524E-05  1.32787996E-09  1.13298767E-10  7.02145907E-01
  3.58516099E-02 -1.66034358E-04 -1.65586975E-04 -1.28900427E-09 -1.40380134E-02
  1.47783644E-03 -4.97581930E-04  8.89975459E-09 -6.47885013E-03 -6.50935407E-03
 -6.38200549E-03  9.21146530E-05 -6.89940235E-11  4.72363119E-10 -1.36809701E-05
 -1.63765375E-03 -5.61894619E-05 -2.17436496E-03 -5.61898878E-05 -2.17436223E-03
  5.61859251E-05  2.17443680E-03  5.61857717E-05  2.17444443E-03  1.36790383E-05
  1.63774493E-03  7.02041790E-01  3.53420991E-02 -3.69469057E-06 -3.69494916E-05
  6.03511509E-10 -1.13138313E-02 -2.91311054E-04 -4.04027406E-04 -2.47835038E-10
 -6.58276320E-03 -6.56837497E-03 -6.58479430E-03 -3.06406004E-05 -7.24352284E-11
  1.36451298E-10 -2.03969798E-03 -3.68122786E-04  5.83898469E-09  3.51928822E-05
 -8.23410493E-10  5.42171286E-03 -1.03007832E-07 -1.25335862E-03  5.62907555E-09
 -4.90012147E-04 -3.12349210E-04 -1.87555402E-04 -4.88319836E-09  7.63236290E-11
  4.74226913E-10 -2.63075496E-05 -1.53206652E-04 -6.40876350E-10  2.88137533E-05
 -9.98567211E-11  1.71512697E-04  1.57469929E-08 -1.54836670E-04 -6.41989118E-10
 -2.49371342E-05  4.85818728E-05 -2.11994982E-04 -2.17444867E-09 -1.12785776E-10
  6.05232052E-10  7.02011158E-01  3.53405349E-02  3.70193325E-06 -3.69422660E-05
  7.44541493E-12 -1.13132189E-02  2.91246585E-04 -4.04005718E-04 -1.33641921E-09
 -6.58248054E-03 -6.56809098E-03 -6.58451587E-03  3.06365822E-05 -1.87108586E-10
 -2.36001179E-10 -4.43368649E-05  2.08989602E-03 -8.76807918E-05  1.76533696E-03
 -8.76817649E-05  1.76533820E-03 -8.76839533E-05  1.76524434E-03 -8.76835056E-05
  1.76524109E-03 -4.43374594E-05  2.08982457E-03 -1.84616237E-02  3.39248960E-02
  1.87960870E-02  1.92182585E-02 -1.09567911E-08  5.73901900E-03 -9.24283743E-03
  9.56695469E-03  5.48482617E-08  3.13998387E-03  3.35411385E-03 -1.20115455E-03
  4.80484522E-03 -1.88169676E-10 -1.29965457E-08 -1.20499729E-01  2.32910021E-01
 -1.36252507E-10  1.79955318E-01  4.33527855E-07  8.44350511E-02  1.75652910E-10
 -4.37426931E-02 -5.26504334E-08 -1.91195540E-02  2.21585868E-02 -1.99037437E-02
 -5.99399360E-12 -8.79662577E-10  9.99781300E-08 -1.93411838E-01  4.18791481E-01
 -7.44224078E-11 -1.61773138E-01 -3.37742588E-07  4.03138807E-01 -8.70926431E-11
 -5.77145137E-02 -1.33400600E-07 -1.16370966E-02  9.88096868E-03 -6.94210599E-03
  1.67925429E-11 -1.98651657E-09  4.65241209E-08 -1.84616235E-02  3.39248956E-02
 -1.87960867E-02  1.92182585E-02 -1.59062223E-08  5.73901848E-03  9.24283764E-03
  9.56695443E-03  3.82489974E-08  3.13998378E-03  3.35411393E-03 -1.20115454E-03
 -4.80484521E-03  4.75182637E-09 -5.88667327E-09  8.16590047E-03 -2.58290728E-03
  6.16761001E-03  1.22318071E-03  6.16760798E-03  1.22319755E-03  6.16760644E-03
  1.22320715E-03  6.16761150E-03  1.22317104E-03  8.16590035E-03 -2.58290726E-03
 -1.24842782E-01  2.38447868E-01  4.80021461E-02  1.82928905E-03 -2.61599333E-09
  2.06692478E-01  8.49295279E-03 -5.50522833E-03  2.94927574E-09  2.56336544E-03
 -1.63223094E-03 -3.77394598E-05  2.28846649E-04 -4.26475222E-09  2.75324086E-09
 -8.58739735E-02  1.73056925E-01  2.55629486E-10 -1.82599515E-01  9.80758509E-08
  1.23671035E-01 -6.84505964E-11 -4.35211533E-02  1.63419300E-08  1.35259386E-02
 -1.21164706E-02 -6.14633283E-03 -1.31113030E-10 -9.93517296E-10 -6.29397635E-08
  6.49065680E-02 -1.48181160E-01 -2.44802755E-11  1.02997196E-03  1.21228874E-07
 -1.48260575E-01  2.65242671E-12 -9.55900267E-03  8.96132046E-09  1.23638086E-03