DMSO                                                                    
Freq      RHF                                                         STO-3G              
Number of atoms                            I               10
Info1-9                                    I   N=           9
          19          19        1002           0           0         100
           6           1           2
Full Title                                 C   N=           1
DMSO        
Route                                      C   N=           2
# opt freq HF/STO-3G    
Charge                                     I                0
Multiplicity                               I                1
Number of electrons                        I               42
Number of alpha electrons                  I               21
Number of beta electrons                   I               21
Number of basis functions                  I               30
Number of independent functions            I               30
Number of point charges in /Mol/           I                0
Number of translation vectors              I                0
Atomic numbers                             I   N=          10
           6          16           8           6           1           1
           1           1           1           1
Nuclear charges                            R   N=          10
  6.00000000E+00  1.60000000E+01  8.00000000E+00  6.00000000E+00  1.00000000E+00
  1.00000000E+00  1.00000000E+00  1.00000000E+00  1.00000000E+00  1.00000000E+00
Current cartesian coordinates              R   N=          30
 -2.58930547E+00 -1.48208114E+00  4.78630732E-01  5.54930467E-17  1.94511982E-01
 -9.93790576E-01  8.40049844E-08  3.19055415E+00  6.92966263E-01  2.58930540E+00
 -1.48208127E+00  4.78630727E-01 -4.34694053E+00 -6.94657452E-01 -2.23577676E-01
 -2.52001732E+00 -3.47954463E+00  1.32508301E-02 -2.53195833E+00 -1.25162291E+00
  2.51700204E+00  2.53195823E+00 -1.25162312E+00  2.51700204E+00  4.34694048E+00
 -6.94657574E-01 -2.23577605E-01  2.52001722E+00 -3.47954474E+00  1.32507347E-02
Number of symbols in /Mol/                 I                0
Force Field                                I                0
Atom Types                                 C   N=          10
                                                            
                                                            
Int Atom Types                             I   N=          10
           0           0           0           0           0           0
           0           0           0           0
MM charges                                 R   N=          10
  0.00000000E+00  0.00000000E+00  0.00000000E+00  0.00000000E+00  0.00000000E+00
  0.00000000E+00  0.00000000E+00  0.00000000E+00  0.00000000E+00  0.00000000E+00
Integer atomic weights                     I   N=          10
          12          32          16          12           1           1
           1           1           1           1
Real atomic weights                        R   N=          10
  1.20000000E+01  3.19720718E+01  1.59949146E+01  1.20000000E+01  1.00782504E+00
  1.00782504E+00  1.00782504E+00  1.00782504E+00  1.00782504E+00  1.00782504E+00
Atom fragment info                         I   N=          10
           0           0           0           0           0           0
           0           0           0           0
Atom residue num                           I   N=          10
           0           0           0           0           0           0
           0           0           0           0
Nuclear spins                              I   N=          10
           0           0           0           0           1           1
           1           1           1           1
Nuclear ZEff                               R   N=          10
 -3.60000000E+00 -1.36000000E+01 -5.60000000E+00 -3.60000000E+00 -1.00000000E+00
 -1.00000000E+00 -1.00000000E+00 -1.00000000E+00 -1.00000000E+00 -1.00000000E+00
Nuclear ZNuc                               R   N=          10
  6.00000000E+00  1.60000000E+01  8.00000000E+00  6.00000000E+00  1.00000000E+00
  1.00000000E+00  1.00000000E+00  1.00000000E+00  1.00000000E+00  1.00000000E+00
Nuclear QMom                               R   N=          10
  0.00000000E+00  0.00000000E+00  0.00000000E+00  0.00000000E+00  0.00000000E+00
  0.00000000E+00  0.00000000E+00  0.00000000E+00  0.00000000E+00  0.00000000E+00
Nuclear GFac                               R   N=          10
  0.00000000E+00  0.00000000E+00  0.00000000E+00  0.00000000E+00  2.79284600E+00
  2.79284600E+00  2.79284600E+00  2.79284600E+00  2.79284600E+00  2.79284600E+00
MicOpt                                     I   N=          10
          -1          -1          -1          -1          -1          -1
          -1          -1          -1          -1
Number of residues                         I                0
Number of secondary structures             I                0
Redundant internal dimensions              I   N=           4
          36           9          15          12
Redundant internal coordinate indices      I   N=         144
           1           2           0           0           1           5
           0           0           1           6           0           0
           1           7           0           0           2           3
           0           0           2           4           0           0
           4           8           0           0           4           9
           0           0           4          10           0           0
           2           1           5           0           2           1
           6           0           2           1           7           0
           5           1           6           0           5           1
           7           0           6           1           7           0
           1           2           3           0           1           2
           4           0           3           2           4           0
           2           4           8           0           2           4
           9           0           2           4          10           0
           8           4           9           0           8           4
          10           0           9           4          10           0
           5           1           2           3           5           1
           2           4           6           1           2           3
           6           1           2           4           7           1
           2           3           7           1           2           4
           1           2           4           8           1           2
           4           9           1           2           4          10
           3           2           4           8           3           2
           4           9           3           2           4          10
Redundant internal coordinates             R   N=          36
  3.41811232E+00  2.04997896E+00  2.05213052E+00  2.05215917E+00  3.43822880E+00
  3.41811232E+00  2.05215917E+00  2.04997895E+00  2.05213053E+00  1.88970382E+00
  1.93282204E+00  1.93010121E+00  1.90196434E+00  1.89765155E+00  1.91093783E+00
  1.78860292E+00  1.71902672E+00  1.78860291E+00  1.93010122E+00  1.88970382E+00
  1.93282204E+00  1.89765154E+00  1.91093783E+00  1.90196434E+00  1.31518689E+00
 -3.13747200E+00 -2.88374699E+00 -1.05322057E+00 -7.62197507E-01  1.06832891E+00
 -1.06832886E+00  3.13747206E+00  1.05322063E+00  7.62197561E-01 -1.31518683E+00
  2.88374706E+00
ZRed-IntVec                                I   N=          36
           0           0           0           0           0           0
           0           0           0           0           0           0
           0           0           0           0           0           0
           0           0           0           0           0           0
           0           0           0           0           0           0
           0           0           0           0           0           0
ZRed-FPVec                                 R   N=          36
  0.00000000E+00  0.00000000E+00  0.00000000E+00  0.00000000E+00  0.00000000E+00
  0.00000000E+00  0.00000000E+00  0.00000000E+00  0.00000000E+00  0.00000000E+00
  0.00000000E+00  0.00000000E+00  0.00000000E+00  0.00000000E+00  0.00000000E+00
  0.00000000E+00  0.00000000E+00  0.00000000E+00  0.00000000E+00  0.00000000E+00
  0.00000000E+00  0.00000000E+00  0.00000000E+00  0.00000000E+00  0.00000000E+00
  0.00000000E+00  0.00000000E+00  0.00000000E+00  0.00000000E+00  0.00000000E+00
  0.00000000E+00  0.00000000E+00  0.00000000E+00  0.00000000E+00  0.00000000E+00
  0.00000000E+00
ZRed-Constraint1                           R   N=          36
  3.41811232E+00  2.04997896E+00  2.05213052E+00  2.05215917E+00  3.43822880E+00
  3.41811232E+00  2.05215917E+00  2.04997895E+00  2.05213053E+00  1.88970382E+00
  1.93282204E+00  1.93010121E+00  1.90196434E+00  1.89765155E+00  1.91093783E+00
  1.78860292E+00  1.71902672E+00  1.78860291E+00  1.93010122E+00  1.88970382E+00
  1.93282204E+00  1.89765154E+00  1.91093783E+00  1.90196434E+00  1.31518689E+00
 -3.13747200E+00 -2.88374699E+00 -1.05322057E+00 -7.62197507E-01  1.06832891E+00
 -1.06832886E+00  3.13747206E+00  1.05322063E+00  7.62197561E-01 -1.31518683E+00
  2.88374706E+00
ZRed-Constraint2                           R   N=          36
  3.41874503E+00  2.06461268E+00  2.06446970E+00  2.06474430E+00  2.83463234E+00
  3.41874538E+00  2.06474386E+00  2.06461298E+00  2.06446946E+00  1.89501826E+00
  1.91103205E+00  1.91938547E+00  1.90787299E+00  1.90882585E+00  1.92144801E+00
  1.87623119E+00  1.67130357E+00  1.87623147E+00  1.91938523E+00  1.89501774E+00
  1.91103123E+00  1.90882510E+00  1.92144962E+00  1.90787367E+00  1.18063143E+00
  3.10760932E+00 -3.02070128E+00 -1.09372339E+00 -9.07294894E-01  1.01968299E+00
 -1.01968304E+00 -3.10760800E+00  1.09372467E+00  9.07294607E-01 -1.18063035E+00
  3.02070232E+00
SymInf integers                            I   N=          26
           1           1           1           1           1           0
           0           0           0           0           0           0
           0           0           0           0           0           0
           0           0           0           0           0           0
           0           0
RotTr to input orientation                 R   N=          12
  9.70519141E-01  1.96095158E-01  1.40140235E-01  1.02249043E-01 -8.61496003E-01
  4.97362815E-01  2.18260692E-01 -4.68370928E-01 -8.56148903E-01 -8.36533636E-03
 -6.51783132E-01  9.69958840E-01
Number of contracted shells                I               15
Number of primitive shells                 I               45
Pure/Cartesian d shells                    I                0
Pure/Cartesian f shells                    I                0
Highest angular momentum                   I                1
Largest degree of contraction              I                3
Shell types                                I   N=          15
           0          -1           0          -1          -1           0
          -1           0          -1           0           0           0
           0           0           0
Number of primitives per shell             I   N=          15
           3           3           3           3           3           3
           3           3           3           3           3           3
           3           3           3
Shell to atom map                          I   N=          15
           1           1           2           2           2           3
           3           4           4           5           6           7
           8           9          10
Primitive exponents                        R   N=          45
  7.16168373E+01  1.30450963E+01  3.53051216E+00  2.94124936E+00  6.83483096E-01
  2.22289916E-01  5.33125736E+02  9.71095183E+01  2.62816254E+01  3.33297517E+01
  7.74511752E+00  2.51895260E+00  2.02919427E+00  5.66140052E-01  2.21583379E-01
  1.30709321E+02  2.38088661E+01  6.44360831E+00  5.03315132E+00  1.16959612E+00
  3.80388960E-01  7.16168373E+01  1.30450963E+01  3.53051216E+00  2.94124936E+00
  6.83483096E-01  2.22289916E-01  3.42525091E+00  6.23913730E-01  1.68855404E-01
  3.42525091E+00  6.23913730E-01  1.68855404E-01  3.42525091E+00  6.23913730E-01
  1.68855404E-01  3.42525091E+00  6.23913730E-01  1.68855404E-01  3.42525091E+00
  6.23913730E-01  1.68855404E-01  3.42525091E+00  6.23913730E-01  1.68855404E-01
Contraction coefficients                   R   N=          45
  1.54328967E-01  5.35328142E-01  4.44634542E-01 -9.99672292E-02  3.99512826E-01
  7.00115469E-01  1.54328967E-01  5.35328142E-01  4.44634542E-01 -9.99672292E-02
  3.99512826E-01  7.00115469E-01 -2.19620369E-01  2.25595434E-01  9.00398426E-01
  1.54328967E-01  5.35328142E-01  4.44634542E-01 -9.99672292E-02  3.99512826E-01
  7.00115469E-01  1.54328967E-01  5.35328142E-01  4.44634542E-01 -9.99672292E-02
  3.99512826E-01  7.00115469E-01  1.54328967E-01  5.35328142E-01  4.44634542E-01
  1.54328967E-01  5.35328142E-01  4.44634542E-01  1.54328967E-01  5.35328142E-01
  4.44634542E-01  1.54328967E-01  5.35328142E-01  4.44634542E-01  1.54328967E-01
  5.35328142E-01  4.44634542E-01  1.54328967E-01  5.35328142E-01  4.44634542E-01
P(S=P) Contraction coefficients            R   N=          45
  0.00000000E+00  0.00000000E+00  0.00000000E+00  1.55916275E-01  6.07683719E-01
  3.91957393E-01  0.00000000E+00  0.00000000E+00  0.00000000E+00  1.55916275E-01
  6.07683719E-01  3.91957393E-01  1.05876043E-02  5.95167005E-01  4.62001012E-01
  0.00000000E+00  0.00000000E+00  0.00000000E+00  1.55916275E-01  6.07683719E-01
  3.91957393E-01  0.00000000E+00  0.00000000E+00  0.00000000E+00  1.55916275E-01
  6.07683719E-01  3.91957393E-01  0.00000000E+00  0.00000000E+00  0.00000000E+00
  0.00000000E+00  0.00000000E+00  0.00000000E+00  0.00000000E+00  0.00000000E+00
  0.00000000E+00  0.00000000E+00  0.00000000E+00  0.00000000E+00  0.00000000E+00
  0.00000000E+00  0.00000000E+00  0.00000000E+00  0.00000000E+00  0.00000000E+00
Coordinates of each shell                  R   N=          45
 -2.58930547E+00 -1.48208114E+00  4.78630732E-01 -2.58930547E+00 -1.48208114E+00
  4.78630732E-01  2.43756636E-17  1.94511982E-01 -9.93790576E-01  2.43756636E-17
  1.94511982E-01 -9.93790576E-01  2.43756636E-17  1.94511982E-01 -9.93790576E-01
  8.40049841E-08  3.19055415E+00  6.92966263E-01  8.40049841E-08  3.19055415E+00
  6.92966263E-01  2.58930540E+00 -1.48208127E+00  4.78630727E-01  2.58930540E+00
 -1.48208127E+00  4.78630727E-01 -4.34694053E+00 -6.94657452E-01 -2.23577676E-01
 -2.52001732E+00 -3.47954463E+00  1.32508301E-02 -2.53195833E+00 -1.25162291E+00
  2.51700204E+00  2.53195823E+00 -1.25162312E+00  2.51700204E+00  4.34694048E+00
 -6.94657574E-01 -2.23577605E-01  2.52001722E+00 -3.47954474E+00  1.32507347E-02
Num ILSW                                   I              100
ILSW                                       I   N=         100
           0           0           0           0           2           0
           0           0           0           0           0          -1
           5           0           0           0           2           0
           0           0           1           0           1           0
           1           0           0           0           0           0
           0           0      100000           0          -1           0
           0           0           0           0           0           0
           0           0           0           1           0           0
           0 -2000000000           1           0           0           0
           0           0           4          52           0           0
           0           0           0           0           0           0
           0           0           0           0           0           1
           0           0           0           0           0           0
           0           0           0           0           0           0
           0           0           0           0           0           0
           0           0           0           0           0           0
           0           0           0           0
Num RLSW                                   I               52
RLSW                                       R   N=          52
  1.00000000E+00  1.00000000E+00  1.00000000E+00  1.00000000E+00  1.00000000E+00
  0.00000000E+00  0.00000000E+00  1.00000000E+00  0.00000000E+00  0.00000000E+00
  0.00000000E+00  0.00000000E+00  1.00000000E+00  0.00000000E+00  0.00000000E+00
  0.00000000E+00  0.00000000E+00  1.00000000E+00  0.00000000E+00  0.00000000E+00
  0.00000000E+00  0.00000000E+00  1.00000000E+00  0.00000000E+00  0.00000000E+00
  0.00000000E+00  0.00000000E+00  1.00000000E+00  0.00000000E+00  0.00000000E+00
  0.00000000E+00  0.00000000E+00  1.00000000E+00  0.00000000E+00  0.00000000E+00
  0.00000000E+00  0.00000000E+00  0.00000000E+00  1.00000000E+00  1.00000000E+00
  0.00000000E+00  1.00000000E+00  0.00000000E+00  0.00000000E+00  0.00000000E+00
  0.00000000E+00  0.00000000E+00  0.00000000E+00  0.00000000E+00  0.00000000E+00
  0.00000000E+00  0.00000000E+00
MxBond                                     I                4
NBond                                      I   N=          10
           4           3           1           4           1           1
           1           1           1           1
IBond                                      I   N=          40
           2           5           6           7           1           3
           4           0           2           0           0           0
           2           8           9          10           1           0
           0           0           1           0           0           0
           1           0           0           0           4           0
           0           0           4           0           0           0
           4           0           0           0
RBond                                      R   N=          40
  1.00000000E+00  1.00000000E+00  1.00000000E+00  1.00000000E+00  1.00000000E+00
  2.00000000E+00  1.00000000E+00  0.00000000E+00  2.00000000E+00  0.00000000E+00
  0.00000000E+00  0.00000000E+00  1.00000000E+00  1.00000000E+00  1.00000000E+00
  1.00000000E+00  1.00000000E+00  0.00000000E+00  0.00000000E+00  0.00000000E+00
  1.00000000E+00  0.00000000E+00  0.00000000E+00  0.00000000E+00  1.00000000E+00
  0.00000000E+00  0.00000000E+00  0.00000000E+00  1.00000000E+00  0.00000000E+00
  0.00000000E+00  0.00000000E+00  1.00000000E+00  0.00000000E+00  0.00000000E+00
  0.00000000E+00  1.00000000E+00  0.00000000E+00  0.00000000E+00  0.00000000E+00
Virial Ratio                               R      2.010220197474603E+00
SCF Energy                                 R     -5.451921046545081E+02
Total Energy                               R     -5.451921046545081E+02
RMS Force                                  R      4.594104635529387E-05
RMS Density                                R      2.174985224930199E-10
NImag                                      I                0
Job Status                                 I                1
Nuclear derivative order                   I                2
External E-field                           R   N=          35
  0.00000000E+00  0.00000000E+00  0.00000000E+00  0.00000000E+00  0.00000000E+00
  0.00000000E+00  0.00000000E+00  0.00000000E+00  0.00000000E+00  0.00000000E+00
  0.00000000E+00  0.00000000E+00  0.00000000E+00  0.00000000E+00  0.00000000E+00
  0.00000000E+00  0.00000000E+00  0.00000000E+00  0.00000000E+00  0.00000000E+00
  0.00000000E+00  0.00000000E+00  0.00000000E+00  0.00000000E+00  0.00000000E+00
  0.00000000E+00  0.00000000E+00  0.00000000E+00  0.00000000E+00  0.00000000E+00
  0.00000000E+00  0.00000000E+00  0.00000000E+00  0.00000000E+00  0.00000000E+00
IOpCl                                      I                0
IROHF                                      I                0
Alpha Orbital Energies                     R   N=          30
 -9.08860962E+01 -2.00100305E+01 -1.10718038E+01 -1.10717851E+01 -8.77036260E+00
 -6.40253973E+00 -6.40109563E+00 -6.39879433E+00 -1.09340702E+00 -9.84000473E-01
 -9.32299081E-01 -7.72569683E-01 -5.89131389E-01 -5.86334888E-01 -5.64095444E-01
 -5.52107168E-01 -4.74456286E-01 -4.11965823E-01 -3.20024979E-01 -2.32335959E-01
 -2.24333407E-01  4.05123460E-01  4.35175524E-01  4.93845663E-01  6.62177841E-01
  6.86352484E-01  6.88269160E-01  7.02134756E-01  7.02469579E-01  7.32953532E-01
Alpha MO coefficients                      R   N=         900
 -6.74002142E-05  4.74156874E-04  3.41366696E-04  2.22965940E-04 -1.81712426E-04
  9.94162365E-01  1.71196993E-02 -2.03382624E-12 -8.41772980E-05  1.70938902E-04
 -2.60554867E-03  4.27314570E-12  1.66358407E-04 -3.33414838E-04 -4.84895713E-05
  3.19624888E-04 -7.22512651E-12 -2.54522839E-04 -1.29195111E-04 -6.74002141E-05
  4.74156872E-04 -3.41366685E-04  2.22965956E-04 -1.81712425E-04  2.10342686E-06
  8.02534596E-07 -2.90947068E-06 -2.90947133E-06  2.10342663E-06  8.02535720E-07
 -3.17955612E-05  2.84315016E-04  1.12404654E-04  1.93369848E-04  5.24100396E-05
 -1.22929501E-04  4.02694314E-04  1.40220651E-11  4.92715184E-04  3.10317219E-04
 -2.43311043E-03 -7.19300472E-11 -2.53145332E-03 -1.60260022E-03  9.94717207E-01
  2.17644877E-02 -4.00914002E-11 -1.45203134E-03 -7.96753754E-04 -3.17955610E-05
  2.84315016E-04 -1.12404643E-04  1.93369850E-04  5.24100303E-05 -3.11907278E-05
 -2.88442328E-05 -1.30412059E-04 -1.30412047E-04 -3.11907364E-05 -2.88442334E-05
  7.01480290E-01  2.59443250E-02 -5.71649618E-04 -3.84061880E-04  2.98631891E-04
 -1.85504078E-09  3.54810549E-09 -5.88024418E-04 -6.85893286E-09  6.43861138E-09
 -1.06712602E-07  4.45544390E-03  5.21760415E-08 -4.85953015E-08 -7.60336332E-10
  5.43004965E-09 -6.53871261E-05 -4.49268351E-09 -1.02299357E-09 -7.01455502E-01
 -2.59433966E-02 -5.71631322E-04  3.84055748E-04 -2.98627543E-04 -4.85699002E-03
 -4.94521600E-03 -4.91892869E-03  4.91875494E-03  4.85681219E-03  4.94504142E-03
  7.01451177E-01  2.62745613E-02 -5.18924898E-04 -1.72774086E-04  1.23250084E-04
 -1.04981889E-04  2.00841469E-04  1.03800187E-08 -3.88968114E-04  3.64371323E-04
 -6.03897486E-03 -7.86458290E-08  2.95874884E-03 -2.74994156E-03 -4.30197260E-05
  3.07295210E-04  1.14672972E-09 -2.54298964E-04 -5.80683882E-05  7.01475965E-01
  2.62754781E-02  5.18945148E-04 -1.72787612E-04  1.23260657E-04 -5.03304486E-03
 -4.93983855E-03 -4.91702189E-03 -4.91719573E-03 -5.03321652E-03 -4.94001324E-03
  1.27666109E-03 -8.18665047E-03 -5.54781183E-03 -3.57301705E-03  2.87856119E-03
 -3.67228394E-01  1.04660222E+00 -1.71307632E-10 -6.64488540E-03  1.24200528E-02
  5.46734833E-02 -8.78954955E-11 -3.51440063E-03  6.80070069E-03  8.92252690E-04
 -5.71568845E-03  1.13365364E-10  3.99644978E-03  1.94874253E-03  1.27666109E-03
 -8.18665044E-03  5.54781166E-03 -3.57301731E-03  2.87856116E-03 -1.77913543E-04
 -1.27451018E-04 -8.10987194E-05 -8.10987035E-05 -1.77913545E-04 -1.27451031E-04
 -1.02466361E-03  8.94966136E-03  3.95310230E-03  5.08236452E-03 -4.48986201E-03
 -5.07470306E-11  1.46561398E-10  9.83741020E-01 -1.48848641E-08 -3.63316793E-09
 -6.92356536E-11  5.96467804E-02 -9.01534099E-10 -2.26291571E-10  1.08094276E-11
 -8.09613504E-11 -2.41112030E-03  1.05672263E-10  5.00851146E-11  1.02466360E-03
 -8.94966118E-03  3.95310197E-03 -5.08236468E-03  4.48986195E-03  1.85998054E-04
  1.12899815E-04  1.04816441E-04 -1.04816458E-04 -1.85998083E-04 -1.12899805E-04
 -8.52605291E-04  7.53026402E-03  6.13791687E-03  3.68771053E-04 -2.67019809E-03
 -4.28199213E-03  1.24364579E-02  1.34064815E-08  9.49363816E-01 -2.59255574E-01
 -5.88272648E-03  7.81208924E-10  5.54609835E-02 -1.61633734E-02  7.86199089E-04
 -5.85647659E-03  1.08738675E-10  2.76354057E-03  3.54437648E-03 -8.52605312E-04
  7.53026417E-03 -6.13791691E-03  3.68771454E-04 -2.67019815E-03 -1.48475629E-04
 -1.51340451E-04 -3.20820224E-05 -3.20820413E-05 -1.48475646E-04 -1.51340436E-04
  4.69395805E-04 -3.99530741E-03 -3.14101598E-03 -3.12934748E-03 -1.75292807E-03
  4.58231216E-03 -1.34003551E-02  7.44738783E-09  2.60067650E-01  9.50283037E-01
  5.93449667E-03  3.82411270E-10  1.30595873E-02  5.15404782E-02  8.61197966E-04
 -6.31627784E-03  1.34144320E-10  4.76771298E-03  9.29679939E-04  4.69395807E-04
 -3.99530741E-03  3.14101582E-03 -3.12934763E-03 -1.75292808E-03  9.10651532E-05
 -5.05970602E-06  2.01204442E-04  2.01204471E-04  9.10651600E-05 -5.05972566E-06
 -7.92793567E-02  2.14325396E-01  4.10153720E-02  2.49008638E-02 -1.65419674E-02
  5.54341504E-02 -1.89635980E-01 -7.09112683E-11 -3.82285188E-03 -3.84594823E-02
  5.23427815E-01  3.71869892E-10  1.63956637E-02  9.69340286E-02 -1.50097459E-01
  5.56492734E-01 -1.28509597E-09 -4.78347218E-02 -1.89632547E-02 -7.92793562E-02
  2.14325394E-01 -4.10153702E-02  2.49008663E-02 -1.65419671E-02  4.40119787E-02
  4.54012305E-02  4.77599114E-02  4.77599112E-02  4.40119790E-02  4.54012295E-02
  1.04206772E-01 -3.02371728E-01 -2.59465787E-02  4.92906151E-03  1.31543324E-02
 -1.83937955E-02  6.49598823E-02 -2.13435313E-09 -6.58928495E-02  1.91531951E-03
 -1.56438933E-01  5.45260718E-09  1.71664306E-01  3.71509688E-03 -1.86056529E-01
  7.22107395E-01 -3.90713930E-10 -1.59369777E-02 -1.09353509E-02  1.04206770E-01
 -3.02371722E-01  2.59465781E-02  4.92905938E-03  1.31543319E-02 -7.13693845E-02
 -8.51890276E-02 -7.22397391E-02 -7.22397387E-02 -7.13693828E-02 -8.51890248E-02
 -1.59900226E-01  4.73032218E-01 -1.69568365E-02 -4.20222098E-04 -4.32596602E-03
 -1.29427143E-10  4.40534373E-10  5.87643925E-02 -1.71415357E-09 -5.83272681E-11
 -1.28894464E-09 -1.41708768E-01  4.29039521E-09  1.52211812E-10 -1.01981885E-09
  4.02845974E-09 -1.23471767E-02  3.57173660E-10 -4.44645311E-12  1.59900228E-01
 -4.73032224E-01 -1.69568378E-02  4.20221124E-04  4.32596576E-03  1.41250852E-01
  1.34479895E-01  1.29021732E-01 -1.29021734E-01 -1.41250854E-01 -1.34479896E-01
  8.10171558E-02 -2.50297968E-01  1.40015793E-01  8.98253464E-02 -9.39294079E-02
  6.48019836E-02 -2.17520601E-01  6.31355562E-10  2.17208833E-02  1.19406922E-02
  7.00979413E-01 -1.88097117E-09 -6.45614468E-02 -3.65862996E-02  8.11738574E-02
 -3.41981254E-01 -1.30734052E-09 -4.36924963E-02 -2.88653106E-02  8.10171554E-02
 -2.50297966E-01 -1.40015789E-01  8.98253505E-02 -9.39294079E-02 -1.19419038E-01
 -1.28215162E-01 -1.36488498E-01 -1.36488498E-01 -1.19419038E-01 -1.28215159E-01
  3.69221721E-03 -7.10826888E-03  2.25148143E-01  4.64542076E-02  3.22578531E-01
 -4.55987539E-03  1.45652133E-02  4.94503070E-10  4.75579091E-03 -7.55846859E-02
 -5.96941677E-02 -1.31803509E-09 -1.16957304E-02  2.25511633E-01  1.24155770E-02
 -5.50714377E-02 -1.58589048E-09 -3.77288968E-02  3.13857843E-02  3.69221716E-03
 -7.10826889E-03 -2.25148137E-01  4.64542148E-02  3.22578530E-01 -2.37902022E-01
 -9.92091696E-02  2.74104769E-01  2.74104772E-01 -2.37902009E-01 -9.92091844E-02
 -5.76316054E-03  1.65332645E-02 -2.06594390E-01  3.27750135E-01  8.17066308E-02
  5.12265302E-03 -1.69080545E-02  2.56915861E-10 -5.57945311E-02 -1.07201248E-02
  5.98881270E-02 -6.78892105E-10  1.63318045E-01  3.33359056E-02  3.13361061E-02
 -1.39102845E-01 -2.13212997E-09 -4.63153563E-02 -1.86020893E-02 -5.76315986E-03
  1.65332608E-02  2.06594400E-01  3.27750113E-01  8.17066351E-02  2.33803695E-01
 -2.94826473E-01  9.97691926E-02  9.97691790E-02  2.33803697E-01 -2.94826458E-01
  6.66816623E-03 -1.17515328E-02 -1.10726159E-01  3.32315905E-01 -2.01954710E-01
 -5.00402464E-11  1.77055978E-10  8.87583699E-02 -1.12904779E-09  1.73869633E-10
 -4.54252140E-10 -2.55362995E-01  3.11859269E-09 -5.14607012E-10 -6.98668216E-10
  3.11372484E-09 -5.70321512E-02  2.53631957E-09  5.19778640E-10 -6.66816665E-03
  1.17515349E-02 -1.10726180E-01 -3.32315912E-01  2.01954708E-01  2.46840861E-01
 -2.49561314E-01 -1.44968873E-01  1.44968886E-01 -2.46840873E-01  2.49561313E-01
 -2.67859606E-03  7.77630416E-03  2.26918116E-02  2.21798147E-01  3.54421793E-01
 -1.12672079E-10  3.69414146E-10 -1.24879751E-02  5.00542378E-10 -1.03438658E-10
 -1.35925409E-09  3.57534944E-02 -1.47397931E-09  2.92782034E-10 -7.29268323E-11
  3.30548173E-10 -1.72016346E-02  5.64654490E-10  4.66419701E-10  2.67859540E-03
 -7.77630132E-03  2.26918015E-02 -2.21798150E-01 -3.54421796E-01 -4.53789993E-02
 -2.57843760E-01  3.25674790E-01 -3.25674785E-01  4.53789821E-02  2.57843775E-01
  1.59762384E-02 -8.86506686E-02 -4.15595296E-01 -7.12824469E-02  7.06727273E-02
  1.14805449E-10 -3.48867609E-10 -1.70944470E-01  4.10179980E-09  7.37802802E-11
  1.70331483E-09  5.08514841E-01 -1.22912683E-08 -1.27423279E-10  2.47359293E-10
 -1.16101158E-09  1.20589271E-01 -3.90250123E-09 -3.07729298E-10 -1.59762385E-02
  8.86506692E-02 -4.15595295E-01  7.12824637E-02 -7.06727224E-02  2.71045335E-01
  1.43073844E-03  1.23616894E-02 -1.23616790E-02 -2.71045336E-01 -1.43074681E-03
 -2.05794303E-02  1.00461248E-01  1.52211134E-01  1.85983842E-01 -1.95995398E-01
 -3.04388599E-02  9.62745777E-02  3.40280841E-09  1.48097972E-01 -1.57623588E-01
 -4.12947055E-01 -1.04359911E-08 -4.55572319E-01  4.95753661E-01 -3.74079194E-02
  1.75799944E-01  1.68557047E-09  9.59222418E-03  2.42086572E-01 -2.05794305E-02
  1.00461248E-01 -1.52211128E-01  1.85983849E-01 -1.95995396E-01  6.23195798E-02
 -1.05832006E-01 -1.45791238E-01 -1.45791242E-01  6.23195775E-02 -1.05831999E-01
  2.79982624E-03 -1.37045972E-02 -2.26276020E-02 -7.59743982E-02 -6.01399953E-02
 -1.96768059E-04  8.93890595E-04 -4.38884952E-09 -1.75707862E-01 -1.95215742E-01
 -2.77046300E-03  1.42921501E-08  5.72928872E-01  6.46583334E-01  6.66453933E-02
 -3.23439076E-01 -1.17494807E-08 -3.75381263E-01 -1.18243160E-02  2.79982618E-03
 -1.37045965E-02  2.26275982E-02 -7.59743985E-02 -6.01399942E-02  4.38337016E-03
  1.39216740E-01 -1.28418395E-01 -1.28418390E-01  4.38336191E-03  1.39216744E-01
 -1.66558249E-02  8.02383979E-02  9.90805017E-02  6.63808472E-02 -4.76467441E-02
 -1.93922818E-12 -1.20763691E-12  4.96472465E-03 -5.77924679E-10 -3.91680990E-10