EC_B3LYP_6-31ppgd,p_pcm_Acetone                                         
Freq      RB3LYP                                                      6-31++G(d,p)        
Number of atoms                            I               10
Info1-9                                    I   N=           9
          19          19        1002           0           0         100
           6          18        -502
Full Title                                 C   N=           3
EC_B3LYP_6-31ppgd,p_pcm_Acetone     
Route                                      C   N=           6
# opt freq B3LYP/6-31++g(d,p) em=gd3bj scrf=(pcm,solvent=Ace
tone)       
Charge                                     I                0
Multiplicity                               I                1
Number of electrons                        I               46
Number of alpha electrons                  I               23
Number of beta electrons                   I               23
Number of basis functions                  I              138
Number of independent functions            I              138
Number of point charges in /Mol/           I                0
Number of translation vectors              I                0
Atomic numbers                             I   N=          10
           6           6           8           6           8           8
           1           1           1           1
Nuclear charges                            R   N=          10
  6.00000000E+00  6.00000000E+00  8.00000000E+00  6.00000000E+00  8.00000000E+00
  8.00000000E+00  1.00000000E+00  1.00000000E+00  1.00000000E+00  1.00000000E+00
Current cartesian coordinates              R   N=          30
 -2.11314084E-16 -1.44644034E+00 -2.47933286E+00  4.86502094E-16  1.44644034E+00
 -2.47933286E+00  4.91660228E-01  2.04572908E+00  1.52050460E-01  1.25662512E-17
 -1.40707953E-17  1.59104507E+00  2.88755776E-17 -6.58823937E-17  3.87412017E+00
 -4.91660228E-01 -2.04572908E+00  1.52050460E-01  1.82981069E+00 -2.25373525E+00
 -2.98771902E+00 -1.49619173E+00 -2.27566027E+00 -3.62230340E+00 -1.82981069E+00
  2.25373525E+00 -2.98771902E+00  1.49619173E+00  2.27566027E+00 -3.62230340E+00
Number of symbols in /Mol/                 I                0
Force Field                                I                0
Atom Types                                 C   N=          10
                                                            
                                                            
Int Atom Types                             I   N=          10
           0           0           0           0           0           0
           0           0           0           0
MM charges                                 R   N=          10
  0.00000000E+00  0.00000000E+00  0.00000000E+00  0.00000000E+00  0.00000000E+00
  0.00000000E+00  0.00000000E+00  0.00000000E+00  0.00000000E+00  0.00000000E+00
Integer atomic weights                     I   N=          10
          12          12          16          12          16          16
           1           1           1           1
Real atomic weights                        R   N=          10
  1.20000000E+01  1.20000000E+01  1.59949146E+01  1.20000000E+01  1.59949146E+01
  1.59949146E+01  1.00782504E+00  1.00782504E+00  1.00782504E+00  1.00782504E+00
Atom fragment info                         I   N=          10
           0           0           0           0           0           0
           0           0           0           0
Atom residue num                           I   N=          10
           0           0           0           0           0           0
           0           0           0           0
Nuclear spins                              I   N=          10
           0           0           0           0           0           0
           1           1           1           1
Nuclear ZEff                               R   N=          10
 -3.60000000E+00 -3.60000000E+00 -5.60000000E+00 -3.60000000E+00 -5.60000000E+00
 -5.60000000E+00 -1.00000000E+00 -1.00000000E+00 -1.00000000E+00 -1.00000000E+00
Nuclear ZNuc                               R   N=          10
  6.00000000E+00  6.00000000E+00  8.00000000E+00  6.00000000E+00  8.00000000E+00
  8.00000000E+00  1.00000000E+00  1.00000000E+00  1.00000000E+00  1.00000000E+00
Nuclear QMom                               R   N=          10
  0.00000000E+00  0.00000000E+00  0.00000000E+00  0.00000000E+00  0.00000000E+00
  0.00000000E+00  0.00000000E+00  0.00000000E+00  0.00000000E+00  0.00000000E+00
Nuclear GFac                               R   N=          10
  0.00000000E+00  0.00000000E+00  0.00000000E+00  0.00000000E+00  0.00000000E+00
  0.00000000E+00  2.79284600E+00  2.79284600E+00  2.79284600E+00  2.79284600E+00
MicOpt                                     I   N=          10
          -1          -1          -1          -1          -1          -1
          -1          -1          -1          -1
Number of residues                         I                0
Number of secondary structures             I                0
Redundant internal dimensions              I   N=           4
          46          10          17          19
Redundant internal coordinate indices      I   N=         184
           1           2           0           0           1           6
           0           0           1           7           0           0
           1           8           0           0           2           3
           0           0           2           9           0           0
           2          10           0           0           3           4
           0           0           4           5           0           0
           4           6           0           0           2           1
           6           0           2           1           7           0
           2           1           8           0           6           1
           7           0           6           1           8           0
           7           1           8           0           1           2
           3           0           1           2           9           0
           1           2          10           0           3           2
           9           0           3           2          10           0
           9           2          10           0           2           3
           4           0           3           4           5           0
           3           4           6           0           5           4
           6           0           1           6           4           0
           6           1           2           3           6           1
           2           9           6           1           2          10
           7           1           2           3           7           1
           2           9           7           1           2          10
           8           1           2           3           8           1
           2           9           8           1           2          10
           2           1           6           4           7           1
           6           4           8           1           6           4
           1           2           3           4           9           2
           3           4          10           2           3           4
           2           3           4           5           2           3
           4           6           3           4           6           1
           5           4           6           1
Redundant internal coordinates             R   N=          46
  2.89288067E+00  2.74318336E+00  2.06358637E+00  2.05732279E+00  2.74318336E+00
  2.06358637E+00  2.05732279E+00  2.54900819E+00  2.28307510E+00  2.54900819E+00
  1.79103722E+00  1.97274196E+00  1.98565191E+00  1.88575795E+00  1.89074805E+00
  1.92870440E+00  1.79103722E+00  1.97274196E+00  1.98565191E+00  1.88575795E+00
  1.89074805E+00  1.92870440E+00  1.90881892E+00  2.17066149E+00  1.94186232E+00
  2.17066149E+00  1.90881892E+00  3.69429809E-01 -1.65708175E+00  2.40786168E+00
 -1.65708175E+00  2.59959199E+00  3.81350114E-01  2.40786168E+00  3.81350114E-01
 -1.83689176E+00 -3.16117769E-01  1.77202248E+00 -2.42127777E+00 -3.16117769E-01
  1.77202248E+00 -2.42127777E+00 -3.01061117E+00  1.30981479E-01  1.30981479E-01
 -3.01061117E+00
ZRed-IntVec                                I   N=          46
           0           0           0           0           0           0
           0           0           0           0           0           0
           0           0           0           0           0           0
           0           0           0           0           0           0
           0           0           0           0           0           0
           0           0           0           0           0           0
           0           0           0           0           0           0
           0           0           0           0
ZRed-FPVec                                 R   N=          46
  0.00000000E+00  0.00000000E+00  0.00000000E+00  0.00000000E+00  0.00000000E+00
  0.00000000E+00  0.00000000E+00  0.00000000E+00  0.00000000E+00  0.00000000E+00
  0.00000000E+00  0.00000000E+00  0.00000000E+00  0.00000000E+00  0.00000000E+00
  0.00000000E+00  0.00000000E+00  0.00000000E+00  0.00000000E+00  0.00000000E+00
  0.00000000E+00  0.00000000E+00  0.00000000E+00  0.00000000E+00  0.00000000E+00
  0.00000000E+00  0.00000000E+00  0.00000000E+00  0.00000000E+00  0.00000000E+00
  0.00000000E+00  0.00000000E+00  0.00000000E+00  0.00000000E+00  0.00000000E+00
  0.00000000E+00  0.00000000E+00  0.00000000E+00  0.00000000E+00  0.00000000E+00
  0.00000000E+00  0.00000000E+00  0.00000000E+00  0.00000000E+00  0.00000000E+00
  0.00000000E+00
ZRed-Constraint1                           R   N=          46
  2.89288067E+00  2.74318336E+00  2.06358637E+00  2.05732279E+00  2.74318336E+00
  2.06358637E+00  2.05732279E+00  2.54900819E+00  2.28307510E+00  2.54900819E+00
  1.79103722E+00  1.97274196E+00  1.98565191E+00  1.88575795E+00  1.89074805E+00
  1.92870440E+00  1.79103722E+00  1.97274196E+00  1.98565191E+00  1.88575795E+00
  1.89074805E+00  1.92870440E+00  1.90881892E+00  2.17066149E+00  1.94186232E+00
  2.17066149E+00  1.90881892E+00  3.69429809E-01 -1.65708175E+00  2.40786168E+00
 -1.65708175E+00  2.59959199E+00  3.81350114E-01  2.40786168E+00  3.81350114E-01
 -1.83689176E+00 -3.16117769E-01  1.77202248E+00 -2.42127777E+00 -3.16117769E-01
  1.77202248E+00 -2.42127777E+00 -3.01061117E+00  1.30981479E-01  1.30981479E-01
 -3.01061117E+00
ZRed-Constraint2                           R   N=          46
  2.82297139E+00  2.67409106E+00  2.06974945E+00  2.06603666E+00  2.67409080E+00
  2.06974915E+00  2.06603658E+00  2.58280647E+00  2.30312540E+00  2.58280661E+00
  1.79495188E+00  1.96326206E+00  1.96455107E+00  1.89557929E+00  1.93791451E+00
  1.90470558E+00  1.79495166E+00  1.96326156E+00  1.96455104E+00  1.89557962E+00
  1.93791462E+00  1.90470587E+00  1.85883747E+00  2.17236850E+00  1.93844838E+00
  2.17236842E+00  1.85883730E+00  5.55303768E-01 -1.48068655E+00  2.64204920E+00
 -1.48068653E+00  2.76650846E+00  6.06058907E-01  2.64204921E+00  6.06058888E-01
 -1.55439066E+00 -4.54831183E-01  1.62884233E+00 -2.55996222E+00 -4.54831936E-01
  1.62884104E+00 -2.55996288E+00 -2.95576967E+00  1.85823040E-01  1.85821731E-01
 -2.95577086E+00
SymInf integers                            I   N=          26
           2           2           1           1           1          -1
          -1           1           0           0           0           0
           0           0           0           0           0           0
           0           0           0           0           0           0
           0           0
RotTr to input orientation                 R   N=          12
 -4.22371463E-03  1.90095893E-02 -9.99810380E-01  1.67081758E-02  9.99681071E-01
  1.89365468E-02  9.99851488E-01 -1.66250250E-02 -4.53998313E-03  1.24075998E+00
 -2.06307500E-02 -5.63406829E-03
Number of contracted shells                I               46
Number of primitive shells                 I               96
Pure/Cartesian d shells                    I                1
Pure/Cartesian f shells                    I                0
Highest angular momentum                   I                2
Largest degree of contraction              I                6
Shell types                                I   N=          46
           0          -1          -1          -1           2           0
          -1          -1          -1           2           0          -1
          -1          -1           2           0          -1          -1
          -1           2           0          -1          -1          -1
           2           0          -1          -1          -1           2
           0           0           0           1           0           0
           0           1           0           0           0           1
           0           0           0           1
Number of primitives per shell             I   N=          46
           6           3           1           1           1           6
           3           1           1           1           6           3
           1           1           1           6           3           1
           1           1           6           3           1           1
           1           6           3           1           1           1
           3           1           1           1           3           1
           1           1           3           1           1           1
           3           1           1           1
Shell to atom map                          I   N=          46
           1           1           1           1           1           2
           2           2           2           2           3           3
           3           3           3           4           4           4
           4           4           5           5           5           5
           5           6           6           6           6           6
           7           7           7           7           8           8
           8           8           9           9           9           9
          10          10          10          10
Primitive exponents                        R   N=          96
  3.04752488E+03  4.57369518E+02  1.03948685E+02  2.92101553E+01  9.28666296E+00
  3.16392696E+00  7.86827235E+00  1.88128854E+00  5.44249258E-01  1.68714478E-01
  4.38000000E-02  8.00000000E-01  3.04752488E+03  4.57369518E+02  1.03948685E+02
  2.92101553E+01  9.28666296E+00  3.16392696E+00  7.86827235E+00  1.88128854E+00
  5.44249258E-01  1.68714478E-01  4.38000000E-02  8.00000000E-01  5.48467166E+03
  8.25234946E+02  1.88046958E+02  5.29645000E+01  1.68975704E+01  5.79963534E+00
  1.55396162E+01  3.59993359E+00  1.01376175E+00  2.70005823E-01  8.45000000E-02
  8.00000000E-01  3.04752488E+03  4.57369518E+02  1.03948685E+02  2.92101553E+01
  9.28666296E+00  3.16392696E+00  7.86827235E+00  1.88128854E+00  5.44249258E-01
  1.68714478E-01  4.38000000E-02  8.00000000E-01  5.48467166E+03  8.25234946E+02
  1.88046958E+02  5.29645000E+01  1.68975704E+01  5.79963534E+00  1.55396162E+01
  3.59993359E+00  1.01376175E+00  2.70005823E-01  8.45000000E-02  8.00000000E-01
  5.48467166E+03  8.25234946E+02  1.88046958E+02  5.29645000E+01  1.68975704E+01
  5.79963534E+00  1.55396162E+01  3.59993359E+00  1.01376175E+00  2.70005823E-01
  8.45000000E-02  8.00000000E-01  1.87311370E+01  2.82539436E+00  6.40121692E-01
  1.61277759E-01  3.60000000E-02  1.10000000E+00  1.87311370E+01  2.82539436E+00
  6.40121692E-01  1.61277759E-01  3.60000000E-02  1.10000000E+00  1.87311370E+01
  2.82539436E+00  6.40121692E-01  1.61277759E-01  3.60000000E-02  1.10000000E+00
  1.87311370E+01  2.82539436E+00  6.40121692E-01  1.61277759E-01  3.60000000E-02
  1.10000000E+00
Contraction coefficients                   R   N=          96
  1.83473713E-03  1.40373228E-02  6.88426223E-02  2.32184443E-01  4.67941348E-01
  3.62311985E-01 -1.19332420E-01 -1.60854152E-01  1.14345644E+00  1.00000000E+00
  1.00000000E+00  1.00000000E+00  1.83473713E-03  1.40373228E-02  6.88426223E-02
  2.32184443E-01  4.67941348E-01  3.62311985E-01 -1.19332420E-01 -1.60854152E-01
  1.14345644E+00  1.00000000E+00  1.00000000E+00  1.00000000E+00  1.83107443E-03
  1.39501722E-02  6.84450781E-02  2.32714336E-01  4.70192898E-01  3.58520853E-01
 -1.10777550E-01 -1.48026263E-01  1.13076702E+00  1.00000000E+00  1.00000000E+00
  1.00000000E+00  1.83473713E-03  1.40373228E-02  6.88426223E-02  2.32184443E-01
  4.67941348E-01  3.62311985E-01 -1.19332420E-01 -1.60854152E-01  1.14345644E+00
  1.00000000E+00  1.00000000E+00  1.00000000E+00  1.83107443E-03  1.39501722E-02
  6.84450781E-02  2.32714336E-01  4.70192898E-01  3.58520853E-01 -1.10777550E-01
 -1.48026263E-01  1.13076702E+00  1.00000000E+00  1.00000000E+00  1.00000000E+00
  1.83107443E-03  1.39501722E-02  6.84450781E-02  2.32714336E-01  4.70192898E-01
  3.58520853E-01 -1.10777550E-01 -1.48026263E-01  1.13076702E+00  1.00000000E+00
  1.00000000E+00  1.00000000E+00  3.34946043E-02  2.34726953E-01  8.13757326E-01
  1.00000000E+00  1.00000000E+00  1.00000000E+00  3.34946043E-02  2.34726953E-01
  8.13757326E-01  1.00000000E+00  1.00000000E+00  1.00000000E+00  3.34946043E-02
  2.34726953E-01  8.13757326E-01  1.00000000E+00  1.00000000E+00  1.00000000E+00
  3.34946043E-02  2.34726953E-01  8.13757326E-01  1.00000000E+00  1.00000000E+00
  1.00000000E+00
P(S=P) Contraction coefficients            R   N=          96
  0.00000000E+00  0.00000000E+00  0.00000000E+00  0.00000000E+00  0.00000000E+00
  0.00000000E+00  6.89990666E-02  3.16423961E-01  7.44308291E-01  1.00000000E+00
  1.00000000E+00  0.00000000E+00  0.00000000E+00  0.00000000E+00  0.00000000E+00
  0.00000000E+00  0.00000000E+00  0.00000000E+00  6.89990666E-02  3.16423961E-01
  7.44308291E-01  1.00000000E+00  1.00000000E+00  0.00000000E+00  0.00000000E+00
  0.00000000E+00  0.00000000E+00  0.00000000E+00  0.00000000E+00  0.00000000E+00
  7.08742682E-02  3.39752839E-01  7.27158577E-01  1.00000000E+00  1.00000000E+00
  0.00000000E+00  0.00000000E+00  0.00000000E+00  0.00000000E+00  0.00000000E+00
  0.00000000E+00  0.00000000E+00  6.89990666E-02  3.16423961E-01  7.44308291E-01
  1.00000000E+00  1.00000000E+00  0.00000000E+00  0.00000000E+00  0.00000000E+00
  0.00000000E+00  0.00000000E+00  0.00000000E+00  0.00000000E+00  7.08742682E-02
  3.39752839E-01  7.27158577E-01  1.00000000E+00  1.00000000E+00  0.00000000E+00
  0.00000000E+00  0.00000000E+00  0.00000000E+00  0.00000000E+00  0.00000000E+00
  0.00000000E+00  7.08742682E-02  3.39752839E-01  7.27158577E-01  1.00000000E+00
  1.00000000E+00  0.00000000E+00  0.00000000E+00  0.00000000E+00  0.00000000E+00
  0.00000000E+00  0.00000000E+00  0.00000000E+00  0.00000000E+00  0.00000000E+00
  0.00000000E+00  0.00000000E+00  0.00000000E+00  0.00000000E+00  0.00000000E+00
  0.00000000E+00  0.00000000E+00  0.00000000E+00  0.00000000E+00  0.00000000E+00
  0.00000000E+00  0.00000000E+00  0.00000000E+00  0.00000000E+00  0.00000000E+00
  0.00000000E+00
Coordinates of each shell                  R   N=         138
 -1.76625536E-16 -1.44644034E+00 -2.47933286E+00 -1.76625536E-16 -1.44644034E+00
 -2.47933286E+00 -1.76625536E-16 -1.44644034E+00 -2.47933286E+00 -1.76625536E-16
 -1.44644034E+00 -2.47933286E+00 -1.76625536E-16 -1.44644034E+00 -2.47933286E+00
  4.58751781E-16  1.44644034E+00 -2.47933286E+00  4.58751781E-16  1.44644034E+00
 -2.47933286E+00  4.58751781E-16  1.44644034E+00 -2.47933286E+00  4.58751781E-16
  1.44644034E+00 -2.47933286E+00  4.58751781E-16  1.44644034E+00 -2.47933286E+00
  4.91660228E-01  2.04572908E+00  1.52050460E-01  4.91660228E-01  2.04572908E+00
  1.52050460E-01  4.91660228E-01  2.04572908E+00  1.52050460E-01  4.91660228E-01
  2.04572908E+00  1.52050460E-01  4.91660228E-01  2.04572908E+00  1.52050460E-01
  9.09746209E-18 -1.40050960E-17  1.59104507E+00  9.09746209E-18 -1.40050960E-17
  1.59104507E+00  9.09746209E-18 -1.40050960E-17  1.59104507E+00  9.09746209E-18
 -1.40050960E-17  1.59104507E+00  9.09746209E-18 -1.40050960E-17  1.59104507E+00
  2.19379995E-17 -3.79954194E-17  3.87412017E+00  2.19379995E-17 -3.79954194E-17
  3.87412017E+00  2.19379995E-17 -3.79954194E-17  3.87412017E+00  2.19379995E-17
 -3.79954194E-17  3.87412017E+00  2.19379995E-17 -3.79954194E-17  3.87412017E+00
 -4.91660228E-01 -2.04572908E+00  1.52050460E-01 -4.91660228E-01 -2.04572908E+00
  1.52050460E-01 -4.91660228E-01 -2.04572908E+00  1.52050460E-01 -4.91660228E-01
 -2.04572908E+00  1.52050460E-01 -4.91660228E-01 -2.04572908E+00  1.52050460E-01
  1.82981069E+00 -2.25373525E+00 -2.98771902E+00  1.82981069E+00 -2.25373525E+00
 -2.98771902E+00  1.82981069E+00 -2.25373525E+00 -2.98771902E+00  1.82981069E+00
 -2.25373525E+00 -2.98771902E+00 -1.49619173E+00 -2.27566027E+00 -3.62230340E+00
 -1.49619173E+00 -2.27566027E+00 -3.62230340E+00 -1.49619173E+00 -2.27566027E+00
 -3.62230340E+00 -1.49619173E+00 -2.27566027E+00 -3.62230340E+00 -1.82981069E+00
  2.25373525E+00 -2.98771902E+00 -1.82981069E+00  2.25373525E+00 -2.98771902E+00
 -1.82981069E+00  2.25373525E+00 -2.98771902E+00 -1.82981069E+00  2.25373525E+00
 -2.98771902E+00  1.49619173E+00  2.27566027E+00 -3.62230340E+00  1.49619173E+00
  2.27566027E+00 -3.62230340E+00  1.49619173E+00  2.27566027E+00 -3.62230340E+00
  1.49619173E+00  2.27566027E+00 -3.62230340E+00
Num ILSW                                   I              100
ILSW                                       I   N=         100
           0           1           0           0           2           0
           0           0           0           0         402          -1
           5           0           0           0           2           0
           0           0           1           0           1           0
           1           0           0           0           0           0
           0           0      100000           0          -1           0
           0           0           0           0           0           0
           0           0           0           1           0           0
           0 -2000000000           1           0           0           0
           0           0         141          52           0           0
           0           0           5           0           0           0
           0           0           0           0           0           1
           0           0           0           0           0           0
           0           0           0           0           0           0
           0           0           0           0           0           0
           0           0           0           0           0           0
           0           0           0           0
Num RLSW                                   I               52
RLSW                                       R   N=          52
  8.00000000E-01  7.20000000E-01  1.00000000E+00  8.10000000E-01  2.00000000E-01
  0.00000000E+00  0.00000000E+00  1.00000000E+00  0.00000000E+00  0.00000000E+00
  0.00000000E+00  0.00000000E+00  1.00000000E+00  0.00000000E+00  0.00000000E+00
  0.00000000E+00  0.00000000E+00  1.00000000E+00  0.00000000E+00  0.00000000E+00
  0.00000000E+00  0.00000000E+00  1.00000000E+00  0.00000000E+00  0.00000000E+00
  0.00000000E+00  0.00000000E+00  1.00000000E+00  0.00000000E+00  0.00000000E+00
  0.00000000E+00  0.00000000E+00  1.00000000E+00  0.00000000E+00  0.00000000E+00
  0.00000000E+00  0.00000000E+00  0.00000000E+00  1.00000000E+00  1.00000000E+00
  0.00000000E+00  1.00000000E+00  0.00000000E+00  0.00000000E+00  0.00000000E+00
  0.00000000E+00  0.00000000E+00  0.00000000E+00  0.00000000E+00  0.00000000E+00
  0.00000000E+00  0.00000000E+00
MxBond                                     I                4
NBond                                      I   N=          10
           4           4           2           3           1           2
           1           1           1           1
IBond                                      I   N=          40
           2           6           7           8           1           3
           9          10           2           4           0           0
           3           5           6           0           4           0
           0           0           1           4           0           0
           1           0           0           0           1           0
           0           0           2           0           0           0
           2           0           0           0
RBond                                      R   N=          40
  1.00000000E+00  1.00000000E+00  1.00000000E+00  1.00000000E+00  1.00000000E+00
  1.00000000E+00  1.00000000E+00  1.00000000E+00  1.00000000E+00  1.50000000E+00
  0.00000000E+00  0.00000000E+00  1.50000000E+00  2.00000000E+00  1.50000000E+00
  0.00000000E+00  2.00000000E+00  0.00000000E+00  0.00000000E+00  0.00000000E+00
  1.00000000E+00  1.50000000E+00  0.00000000E+00  0.00000000E+00  1.00000000E+00
  0.00000000E+00  0.00000000E+00  0.00000000E+00  1.00000000E+00  0.00000000E+00
  0.00000000E+00  0.00000000E+00  1.00000000E+00  0.00000000E+00  0.00000000E+00
  0.00000000E+00  1.00000000E+00  0.00000000E+00  0.00000000E+00  0.00000000E+00
Virial Ratio                               R      2.009067445455407E+00
SCF Energy                                 R     -3.424434061620365E+02
Total Energy                               R     -3.424434061620365E+02
RMS Force                                  R      2.201117194283852E-05
RMS Density                                R      1.729835674230343E-09
NImag                                      I                0
Job Status                                 I                1
Nuclear derivative order                   I                2
PCM-NSphere                                I               10
PCM-NGenSphere                             I               10
PCM-NOrd                                   I   N=          10
           1           2           3           4           5           6
           7           8           9          10
PCM-SphereRadii                            R   N=          10
  4.00253442E+00  4.00253442E+00  3.63772279E+00  4.00253442E+00  3.63772279E+00
  3.63772279E+00  2.99956228E+00  2.99956228E+00  2.99956228E+00  2.99956228E+00
PCM-SphereLoc                              R   N=          30
 -2.11314084E-16 -1.44644034E+00 -2.47933286E+00  4.86502094E-16  1.44644034E+00
 -2.47933286E+00  4.91660228E-01  2.04572908E+00  1.52050460E-01  1.25662512E-17
 -1.40707953E-17  1.59104507E+00  2.88755776E-17 -6.58823937E-17  3.87412017E+00
 -4.91660228E-01 -2.04572908E+00  1.52050460E-01  1.82981069E+00 -2.25373525E+00
 -2.98771902E+00 -1.49619173E+00 -2.27566027E+00 -3.62230340E+00 -1.82981069E+00
  2.25373525E+00 -2.98771902E+00  1.49619173E+00  2.27566027E+00 -3.62230340E+00
External E-field                           R   N=          35
  0.00000000E+00  0.00000000E+00  0.00000000E+00  0.00000000E+00  0.00000000E+00
  0.00000000E+00  0.00000000E+00  0.00000000E+00  0.00000000E+00  0.00000000E+00
  0.00000000E+00  0.00000000E+00  0.00000000E+00  0.00000000E+00  0.00000000E+00
  0.00000000E+00  0.00000000E+00  0.00000000E+00  0.00000000E+00  0.00000000E+00
  0.00000000E+00  0.00000000E+00  0.00000000E+00  0.00000000E+00  0.00000000E+00
  0.00000000E+00  0.00000000E+00  0.00000000E+00  0.00000000E+00  0.00000000E+00
  0.00000000E+00  0.00000000E+00  0.00000000E+00  0.00000000E+00  0.00000000E+00
IOpCl                                      I                0
IROHF                                      I                0
Alpha Orbital Energies                     R   N=         138
 -1.92270207E+01 -1.92270133E+01 -1.91645242E+01 -1.03848775E+01 -1.02713823E+01
 -1.02711637E+01 -1.17656934E+00 -1.06356133E+00 -1.05697149E+00 -7.92723592E-01
 -6.89991851E-01 -6.19654475E-01 -5.51769319E-01 -5.30013785E-01 -5.13707597E-01
 -4.61251472E-01 -4.52691438E-01 -4.47723292E-01 -3.95887674E-01 -3.90342428E-01
 -3.29825569E-01 -3.24472368E-01 -3.18651011E-01 -8.06001836E-03  8.23540857E-03
  9.90871908E-03  1.95802629E-02  2.31294994E-02  5.16261139E-02  5.66966183E-02
  6.55091817E-02  7.61444682E-02  7.70079569E-02  9.99503973E-02  1.09893438E-01
  1.20691208E-01  1.24303721E-01  1.33885525E-01  1.40542548E-01  1.46595962E-01
  1.55506493E-01  1.78605158E-01  1.91588431E-01  1.99637560E-01  2.14079632E-01
  2.28392147E-01  2.42102587E-01  2.48601657E-01  2.73108841E-01  2.73563473E-01
  2.79403503E-01  2.86414292E-01  2.99267109E-01  3.21693939E-01  3.24005699E-01
  3.37781576E-01  3.60638304E-01  3.64539620E-01  3.72365214E-01  3.81456061E-01
  3.82962390E-01  4.97043548E-01  6.38176222E-01  6.51166188E-01  6.86345233E-01
  6.91804715E-01  7.23842838E-01  7.70920030E-01  7.75941393E-01  8.62611442E-01
  8.74337851E-01  9.32322410E-01  9.73348968E-01  1.00392355E+00  1.06145560E+00
  1.06326716E+00  1.12991136E+00  1.15532548E+00  1.20315147E+00  1.22029674E+00
  1.25172268E+00  1.27754590E+00  1.28542008E+00  1.29386601E+00  1.31255000E+00
  1.34039873E+00  1.39333545E+00  1.40659444E+00  1.43780757E+00  1.50929064E+00
  1.56308630E+00  1.59640091E+00  1.64240593E+00  1.67571921E+00  1.76485951E+00
  1.78427780E+00  1.81926778E+00  1.82046036E+00  1.85474512E+00  1.89930010E+00
  1.90453521E+00  1.91997660E+00  1.93513399E+00  1.96990918E+00  1.98965566E+00
  2.02872860E+00  2.09673487E+00  2.15241320E+00  2.20996993E+00  2.23706239E+00
  2.36552334E+00  2.43189726E+00  2.44426960E+00  2.48313894E+00  2.54415021E+00
  2.55733043E+00  2.61289577E+00  2.68936969E+00  2.69452735E+00  2.77152675E+00
  2.78446726E+00  2.81822346E+00  2.83069676E+00  2.89290381E+00  2.98227641E+00
  3.08380822E+00  3.18780258E+00  3.19935389E+00  3.26050921E+00  3.32785344E+00
  3.39997766E+00  3.51503214E+00  4.13602508E+00  4.31295193E+00  4.42438956E+00
  4.52130559E+00  4.56542905E+00  4.63193012E+00
Alpha MO coefficients                      R   N=       19044
  2.95998022E-05  1.56726420E-04  3.27496358E-05  3.09159461E-05 -2.11511786E-04