erjia                                                                   
Freq      RB3LYP                                                      6-31G(d)            
Number of atoms                            I               10
Info1-9                                    I   N=           9
          19          19        1002           0           0         100
           6          18        -502
Full Title                                 C   N=           1
erjia       
Route                                      C   N=           3
# opt freq B3LYP/6-31G(d) em=gd3bj  
Charge                                     I                0
Multiplicity                               I                1
Number of electrons                        I               42
Number of alpha electrons                  I               21
Number of beta electrons                   I               21
Number of basis functions                  I               76
Number of independent functions            I               76
Number of point charges in /Mol/           I                0
Number of translation vectors              I                0
Atomic numbers                             I   N=          10
           6          16           8           6           1           1
           1           1           1           1
Nuclear charges                            R   N=          10
  6.00000000E+00  1.60000000E+01  8.00000000E+00  6.00000000E+00  1.00000000E+00
  1.00000000E+00  1.00000000E+00  1.00000000E+00  1.00000000E+00  1.00000000E+00
Current cartesian coordinates              R   N=          30
 -2.56749803E+00 -1.55413729E+00  3.40663860E-01  5.15224767E-17  4.61024612E-01
 -8.33085286E-01 -4.09229673E-08  2.84803117E+00  7.34209097E-01  2.56749807E+00
 -1.55413723E+00  3.40663864E-01 -4.34148151E+00 -5.99407424E-01 -1.09772718E-01
 -2.50213625E+00 -3.39609236E+00 -5.96547705E-01 -2.39288008E+00 -1.75999832E+00
  2.39018314E+00  2.39288010E+00 -1.75999829E+00  2.39018314E+00  4.34148153E+00
 -5.99407327E-01 -1.09772693E-01  2.50213633E+00 -3.39609230E+00 -5.96547716E-01
Number of symbols in /Mol/                 I                0
Force Field                                I                0
Atom Types                                 C   N=          10
                                                            
                                                            
Int Atom Types                             I   N=          10
           0           0           0           0           0           0
           0           0           0           0
MM charges                                 R   N=          10
  0.00000000E+00  0.00000000E+00  0.00000000E+00  0.00000000E+00  0.00000000E+00
  0.00000000E+00  0.00000000E+00  0.00000000E+00  0.00000000E+00  0.00000000E+00
Integer atomic weights                     I   N=          10
          12          32          16          12           1           1
           1           1           1           1
Real atomic weights                        R   N=          10
  1.20000000E+01  3.19720718E+01  1.59949146E+01  1.20000000E+01  1.00782504E+00
  1.00782504E+00  1.00782504E+00  1.00782504E+00  1.00782504E+00  1.00782504E+00
Atom fragment info                         I   N=          10
           0           0           0           0           0           0
           0           0           0           0
Atom residue num                           I   N=          10
           0           0           0           0           0           0
           0           0           0           0
Nuclear spins                              I   N=          10
           0           0           0           0           1           1
           1           1           1           1
Nuclear ZEff                               R   N=          10
 -3.60000000E+00 -1.36000000E+01 -5.60000000E+00 -3.60000000E+00 -1.00000000E+00
 -1.00000000E+00 -1.00000000E+00 -1.00000000E+00 -1.00000000E+00 -1.00000000E+00
Nuclear ZNuc                               R   N=          10
  6.00000000E+00  1.60000000E+01  8.00000000E+00  6.00000000E+00  1.00000000E+00
  1.00000000E+00  1.00000000E+00  1.00000000E+00  1.00000000E+00  1.00000000E+00
Nuclear QMom                               R   N=          10
  0.00000000E+00  0.00000000E+00  0.00000000E+00  0.00000000E+00  0.00000000E+00
  0.00000000E+00  0.00000000E+00  0.00000000E+00  0.00000000E+00  0.00000000E+00
Nuclear GFac                               R   N=          10
  0.00000000E+00  0.00000000E+00  0.00000000E+00  0.00000000E+00  2.79284600E+00
  2.79284600E+00  2.79284600E+00  2.79284600E+00  2.79284600E+00  2.79284600E+00
MicOpt                                     I   N=          10
          -1          -1          -1          -1          -1          -1
          -1          -1          -1          -1
Number of residues                         I                0
Number of secondary structures             I                0
Redundant internal dimensions              I   N=           4
          36           9          15          12
Redundant internal coordinate indices      I   N=         144
           1           2           0           0           1           5
           0           0           1           6           0           0
           1           7           0           0           2           3
           0           0           2           4           0           0
           4           8           0           0           4           9
           0           0           4          10           0           0
           2           1           5           0           2           1
           6           0           2           1           7           0
           5           1           6           0           5           1
           7           0           6           1           7           0
           1           2           3           0           1           2
           4           0           3           2           4           0
           2           4           8           0           2           4
           9           0           2           4          10           0
           8           4           9           0           8           4
          10           0           9           4          10           0
           5           1           2           3           5           1
           2           4           6           1           2           3
           6           1           2           4           7           1
           2           3           7           1           2           4
           1           2           4           8           1           2
           4           9           1           2           4          10
           3           2           4           8           3           2
           4           9           3           2           4          10
Redundant internal coordinates             R   N=          36
  3.46851708E+00  2.06432062E+00  2.06771278E+00  2.06722023E+00  2.85555809E+00
  3.46851707E+00  2.06722023E+00  2.06432062E+00  2.06771278E+00  1.86876501E+00
  1.91853254E+00  1.90798225E+00  1.91798785E+00  1.91237885E+00  1.93691925E+00
  1.87540733E+00  1.66682274E+00  1.87540734E+00  1.90798226E+00  1.86876502E+00
  1.91853253E+00  1.91237885E+00  1.93691925E+00  1.91798785E+00  1.17106752E+00
  3.09531140E+00 -3.02932224E+00 -1.10507836E+00 -8.99238434E-01  1.02500544E+00
 -1.02500543E+00 -3.09531139E+00  1.10507837E+00  8.99238440E-01 -1.17106752E+00
  3.02932224E+00
ZRed-IntVec                                I   N=          36
           0           0           0           0           0           0
           0           0           0           0           0           0
           0           0           0           0           0           0
           0           0           0           0           0           0
           0           0           0           0           0           0
           0           0           0           0           0           0
ZRed-FPVec                                 R   N=          36
  0.00000000E+00  0.00000000E+00  0.00000000E+00  0.00000000E+00  0.00000000E+00
  0.00000000E+00  0.00000000E+00  0.00000000E+00  0.00000000E+00  0.00000000E+00
  0.00000000E+00  0.00000000E+00  0.00000000E+00  0.00000000E+00  0.00000000E+00
  0.00000000E+00  0.00000000E+00  0.00000000E+00  0.00000000E+00  0.00000000E+00
  0.00000000E+00  0.00000000E+00  0.00000000E+00  0.00000000E+00  0.00000000E+00
  0.00000000E+00  0.00000000E+00  0.00000000E+00  0.00000000E+00  0.00000000E+00
  0.00000000E+00  0.00000000E+00  0.00000000E+00  0.00000000E+00  0.00000000E+00
  0.00000000E+00
ZRed-Constraint1                           R   N=          36
  3.46851708E+00  2.06432062E+00  2.06771278E+00  2.06722023E+00  2.85555809E+00
  3.46851707E+00  2.06722023E+00  2.06432062E+00  2.06771278E+00  1.86876501E+00
  1.91853254E+00  1.90798225E+00  1.91798785E+00  1.91237885E+00  1.93691925E+00
  1.87540733E+00  1.66682274E+00  1.87540734E+00  1.90798226E+00  1.86876502E+00
  1.91853253E+00  1.91237885E+00  1.93691925E+00  1.91798785E+00  1.17106752E+00
  3.09531140E+00 -3.02932224E+00 -1.10507836E+00 -8.99238434E-01  1.02500544E+00
 -1.02500543E+00 -3.09531139E+00  1.10507837E+00  8.99238440E-01 -1.17106752E+00
  3.02932224E+00
ZRed-Constraint2                           R   N=          36
  3.41874503E+00  2.06461268E+00  2.06446970E+00  2.06474430E+00  2.83463234E+00
  3.41874538E+00  2.06474386E+00  2.06461298E+00  2.06446946E+00  1.89501826E+00
  1.91103205E+00  1.91938547E+00  1.90787299E+00  1.90882585E+00  1.92144801E+00
  1.87623119E+00  1.67130357E+00  1.87623147E+00  1.91938523E+00  1.89501774E+00
  1.91103123E+00  1.90882510E+00  1.92144962E+00  1.90787367E+00  1.18063143E+00
  3.10760932E+00 -3.02070128E+00 -1.09372339E+00 -9.07294894E-01  1.01968299E+00
 -1.01968304E+00 -3.10760800E+00  1.09372467E+00  9.07294607E-01 -1.18063035E+00
  3.02070232E+00
SymInf integers                            I   N=          26
           1           1           1           1           1           0
           0           0           0           0           0           0
           0           0           0           0           0           0
           0           0           0           0           0           0
           0           0
RotTr to input orientation                 R   N=          12
  9.70519140E-01  1.96095177E-01  1.40140220E-01  6.96000355E-02 -7.84679940E-01
  6.15981515E-01  2.30756224E-01 -5.88068086E-01 -7.75195131E-01 -1.24336704E-02
 -6.55192569E-01  1.00290412E+00
Number of contracted shells                I               29
Number of primitive shells                 I               74
Pure/Cartesian d shells                    I                1
Pure/Cartesian f shells                    I                0
Highest angular momentum                   I                2
Largest degree of contraction              I                6
Shell types                                I   N=          29
           0          -1          -1           2           0          -1
          -1          -1           2           0          -1          -1
           2           0          -1          -1           2           0
           0           0           0           0           0           0
           0           0           0           0           0
Number of primitives per shell             I   N=          29
           6           3           1           1           6           6
           3           1           1           6           3           1
           1           6           3           1           1           3
           1           3           1           3           1           3
           1           3           1           3           1
Shell to atom map                          I   N=          29
           1           1           1           1           2           2
           2           2           2           3           3           3
           3           4           4           4           4           5
           5           6           6           7           7           8
           8           9           9          10          10
Primitive exponents                        R   N=          74
  3.04752488E+03  4.57369518E+02  1.03948685E+02  2.92101553E+01  9.28666296E+00
  3.16392696E+00  7.86827235E+00  1.88128854E+00  5.44249258E-01  1.68714478E-01
  8.00000000E-01  2.19171000E+04  3.30149000E+03  7.54146000E+02  2.12711000E+02
  6.79896000E+01  2.30515000E+01  4.23735000E+02  1.00710000E+02  3.21599000E+01
  1.18079000E+01  4.63110000E+00  1.87025000E+00  2.61584000E+00  9.22167000E-01
  3.41287000E-01  1.17167000E-01  6.50000000E-01  5.48467166E+03  8.25234946E+02
  1.88046958E+02  5.29645000E+01  1.68975704E+01  5.79963534E+00  1.55396162E+01
  3.59993359E+00  1.01376175E+00  2.70005823E-01  8.00000000E-01  3.04752488E+03
  4.57369518E+02  1.03948685E+02  2.92101553E+01  9.28666296E+00  3.16392696E+00
  7.86827235E+00  1.88128854E+00  5.44249258E-01  1.68714478E-01  8.00000000E-01
  1.87311370E+01  2.82539436E+00  6.40121692E-01  1.61277759E-01  1.87311370E+01
  2.82539436E+00  6.40121692E-01  1.61277759E-01  1.87311370E+01  2.82539436E+00
  6.40121692E-01  1.61277759E-01  1.87311370E+01  2.82539436E+00  6.40121692E-01
  1.61277759E-01  1.87311370E+01  2.82539436E+00  6.40121692E-01  1.61277759E-01
  1.87311370E+01  2.82539436E+00  6.40121692E-01  1.61277759E-01
Contraction coefficients                   R   N=          74
  1.83473713E-03  1.40373228E-02  6.88426223E-02  2.32184443E-01  4.67941348E-01
  3.62311985E-01 -1.19332420E-01 -1.60854152E-01  1.14345644E+00  1.00000000E+00
  1.00000000E+00  1.86924085E-03  1.42303065E-02  6.96962317E-02  2.38487108E-01
  4.83307220E-01  3.38074154E-01 -2.37677050E-03 -3.16930067E-02 -1.13317024E-01
  5.60900118E-02  5.92255124E-01  4.55006095E-01 -2.50373114E-01  6.69567631E-02
  1.05450627E+00  1.00000000E+00  1.00000000E+00  1.83107443E-03  1.39501722E-02
  6.84450781E-02  2.32714336E-01  4.70192898E-01  3.58520853E-01 -1.10777550E-01
 -1.48026263E-01  1.13076702E+00  1.00000000E+00  1.00000000E+00  1.83473713E-03
  1.40373228E-02  6.88426223E-02  2.32184443E-01  4.67941348E-01  3.62311985E-01
 -1.19332420E-01 -1.60854152E-01  1.14345644E+00  1.00000000E+00  1.00000000E+00
  3.34946043E-02  2.34726953E-01  8.13757326E-01  1.00000000E+00  3.34946043E-02
  2.34726953E-01  8.13757326E-01  1.00000000E+00  3.34946043E-02  2.34726953E-01
  8.13757326E-01  1.00000000E+00  3.34946043E-02  2.34726953E-01  8.13757326E-01
  1.00000000E+00  3.34946043E-02  2.34726953E-01  8.13757326E-01  1.00000000E+00
  3.34946043E-02  2.34726953E-01  8.13757326E-01  1.00000000E+00
P(S=P) Contraction coefficients            R   N=          74
  0.00000000E+00  0.00000000E+00  0.00000000E+00  0.00000000E+00  0.00000000E+00
  0.00000000E+00  6.89990666E-02  3.16423961E-01  7.44308291E-01  1.00000000E+00
  0.00000000E+00  0.00000000E+00  0.00000000E+00  0.00000000E+00  0.00000000E+00
  0.00000000E+00  0.00000000E+00  4.06100998E-03  3.06812999E-02  1.30451999E-01
  3.27204999E-01  4.52850998E-01  2.56041999E-01 -1.45104895E-02  3.10262776E-01
  7.54482456E-01  1.00000000E+00  0.00000000E+00  0.00000000E+00  0.00000000E+00
  0.00000000E+00  0.00000000E+00  0.00000000E+00  0.00000000E+00  7.08742682E-02
  3.39752839E-01  7.27158577E-01  1.00000000E+00  0.00000000E+00  0.00000000E+00
  0.00000000E+00  0.00000000E+00  0.00000000E+00  0.00000000E+00  0.00000000E+00
  6.89990666E-02  3.16423961E-01  7.44308291E-01  1.00000000E+00  0.00000000E+00
  0.00000000E+00  0.00000000E+00  0.00000000E+00  0.00000000E+00  0.00000000E+00
  0.00000000E+00  0.00000000E+00  0.00000000E+00  0.00000000E+00  0.00000000E+00
  0.00000000E+00  0.00000000E+00  0.00000000E+00  0.00000000E+00  0.00000000E+00
  0.00000000E+00  0.00000000E+00  0.00000000E+00  0.00000000E+00  0.00000000E+00
  0.00000000E+00  0.00000000E+00  0.00000000E+00  0.00000000E+00
Coordinates of each shell                  R   N=          87
 -2.56749803E+00 -1.55413729E+00  3.40663860E-01 -2.56749803E+00 -1.55413729E+00
  3.40663860E-01 -2.56749803E+00 -1.55413729E+00  3.40663860E-01 -2.56749803E+00
 -1.55413729E+00  3.40663860E-01  2.37669011E-17  4.61024612E-01 -8.33085286E-01
  2.37669011E-17  4.61024612E-01 -8.33085286E-01  2.37669011E-17  4.61024612E-01
 -8.33085286E-01  2.37669011E-17  4.61024612E-01 -8.33085286E-01  2.37669011E-17
  4.61024612E-01 -8.33085286E-01 -4.09229673E-08  2.84803117E+00  7.34209097E-01
 -4.09229673E-08  2.84803117E+00  7.34209097E-01 -4.09229673E-08  2.84803117E+00
  7.34209097E-01 -4.09229673E-08  2.84803117E+00  7.34209097E-01  2.56749807E+00
 -1.55413723E+00  3.40663864E-01  2.56749807E+00 -1.55413723E+00  3.40663864E-01
  2.56749807E+00 -1.55413723E+00  3.40663864E-01  2.56749807E+00 -1.55413723E+00
  3.40663864E-01 -4.34148151E+00 -5.99407424E-01 -1.09772718E-01 -4.34148151E+00
 -5.99407424E-01 -1.09772718E-01 -2.50213625E+00 -3.39609236E+00 -5.96547705E-01
 -2.50213625E+00 -3.39609236E+00 -5.96547705E-01 -2.39288008E+00 -1.75999832E+00
  2.39018314E+00 -2.39288008E+00 -1.75999832E+00  2.39018314E+00  2.39288010E+00
 -1.75999829E+00  2.39018314E+00  2.39288010E+00 -1.75999829E+00  2.39018314E+00
  4.34148153E+00 -5.99407327E-01 -1.09772693E-01  4.34148153E+00 -5.99407327E-01
 -1.09772693E-01  2.50213633E+00 -3.39609230E+00 -5.96547716E-01  2.50213633E+00
 -3.39609230E+00 -5.96547716E-01
Num ILSW                                   I              100
ILSW                                       I   N=         100
           0           1           0           0           2           0
           0           0           0           0         402          -1
           5           0           0           0           2           0
           0           0           1           0           1           0
           1           0           0           0           0           0
           0           0      100000           0          -1           0
           0           0           0           0           0           0
           0           0           0           1           0           0
           0 -2000000000           1           0           0           0
           0           0         141          52           0           0
           0           0           5           0           0           0
           0           0           0           0           0           1
           0           0           0           0           0           0
           0           0           0           0           0           0
           0           0           0           0           0           0
           0           0           0           0           0           0
           0           0           0           0
Num RLSW                                   I               52
RLSW                                       R   N=          52
  8.00000000E-01  7.20000000E-01  1.00000000E+00  8.10000000E-01  2.00000000E-01
  0.00000000E+00  0.00000000E+00  1.00000000E+00  0.00000000E+00  0.00000000E+00
  0.00000000E+00  0.00000000E+00  1.00000000E+00  0.00000000E+00  0.00000000E+00
  0.00000000E+00  0.00000000E+00  1.00000000E+00  0.00000000E+00  0.00000000E+00
  0.00000000E+00  0.00000000E+00  1.00000000E+00  0.00000000E+00  0.00000000E+00
  0.00000000E+00  0.00000000E+00  1.00000000E+00  0.00000000E+00  0.00000000E+00
  0.00000000E+00  0.00000000E+00  1.00000000E+00  0.00000000E+00  0.00000000E+00
  0.00000000E+00  0.00000000E+00  0.00000000E+00  1.00000000E+00  1.00000000E+00
  0.00000000E+00  1.00000000E+00  0.00000000E+00  0.00000000E+00  0.00000000E+00
  0.00000000E+00  0.00000000E+00  0.00000000E+00  0.00000000E+00  0.00000000E+00
  0.00000000E+00  0.00000000E+00
MxBond                                     I                4
NBond                                      I   N=          10
           4           3           1           4           1           1
           1           1           1           1
IBond                                      I   N=          40
           2           5           6           7           1           3
           4           0           2           0           0           0
           2           8           9          10           1           0
           0           0           1           0           0           0
           1           0           0           0           4           0
           0           0           4           0           0           0
           4           0           0           0
RBond                                      R   N=          40
  1.00000000E+00  1.00000000E+00  1.00000000E+00  1.00000000E+00  1.00000000E+00
  2.00000000E+00  1.00000000E+00  0.00000000E+00  2.00000000E+00  0.00000000E+00
  0.00000000E+00  0.00000000E+00  1.00000000E+00  1.00000000E+00  1.00000000E+00
  1.00000000E+00  1.00000000E+00  0.00000000E+00  0.00000000E+00  0.00000000E+00
  1.00000000E+00  0.00000000E+00  0.00000000E+00  0.00000000E+00  1.00000000E+00
  0.00000000E+00  0.00000000E+00  0.00000000E+00  1.00000000E+00  0.00000000E+00
  0.00000000E+00  0.00000000E+00  1.00000000E+00  0.00000000E+00  0.00000000E+00
  0.00000000E+00  1.00000000E+00  0.00000000E+00  0.00000000E+00  0.00000000E+00
Virial Ratio                               R      2.005072959390440E+00
SCF Energy                                 R     -5.531996500264229E+02
Total Energy                               R     -5.531996500264229E+02
RMS Force                                  R      1.293719734161722E-05
RMS Density                                R      1.778661153627758E-09
NImag                                      I                0
Job Status                                 I                1
Nuclear derivative order                   I                2
External E-field                           R   N=          35
  0.00000000E+00  0.00000000E+00  0.00000000E+00  0.00000000E+00  0.00000000E+00
  0.00000000E+00  0.00000000E+00  0.00000000E+00  0.00000000E+00  0.00000000E+00
  0.00000000E+00  0.00000000E+00  0.00000000E+00  0.00000000E+00  0.00000000E+00
  0.00000000E+00  0.00000000E+00  0.00000000E+00  0.00000000E+00  0.00000000E+00
  0.00000000E+00  0.00000000E+00  0.00000000E+00  0.00000000E+00  0.00000000E+00
  0.00000000E+00  0.00000000E+00  0.00000000E+00  0.00000000E+00  0.00000000E+00
  0.00000000E+00  0.00000000E+00  0.00000000E+00  0.00000000E+00  0.00000000E+00
IOpCl                                      I                0
IROHF                                      I                0
Alpha Orbital Energies                     R   N=          76
 -8.89850520E+01 -1.90991784E+01 -1.02138008E+01 -1.02137961E+01 -8.03215252E+00
 -5.99610498E+00 -5.99540991E+00 -5.98944551E+00 -9.97007722E-01 -7.88503577E-01
 -7.20274303E-01 -6.04034497E-01 -4.66188938E-01 -4.57282887E-01 -4.55047633E-01
 -4.25737227E-01 -3.97276798E-01 -3.91682006E-01 -3.50390143E-01 -2.60016352E-01
 -2.22564140E-01  4.27370280E-02  4.84951838E-02  7.91519797E-02  9.78108439E-02
  1.20660260E-01  1.37889056E-01  1.47504185E-01  1.62473307E-01  1.77774712E-01
  3.37167863E-01  3.60628032E-01  4.26550945E-01  4.33061841E-01  4.71748201E-01
  5.09257845E-01  5.61139428E-01  5.67311159E-01  6.18497240E-01  7.40188166E-01
  7.74811752E-01  7.96712649E-01  8.18687953E-01  8.43909401E-01  8.50911909E-01
  8.86026661E-01  8.90729169E-01  8.96657604E-01  9.07468740E-01  9.28514294E-01
  9.94751486E-01  1.07013701E+00  1.08665021E+00  1.15419396E+00  1.22727758E+00
  1.31209025E+00  1.50248155E+00  1.64673915E+00  1.67386806E+00  1.72589370E+00
  1.76220610E+00  1.86606113E+00  1.87744407E+00  2.04844689E+00  2.06826672E+00
  2.09804663E+00  2.16993553E+00  2.20113831E+00  2.22355829E+00  2.23939998E+00
  2.25739783E+00  2.75820374E+00  3.81392770E+00  3.91502871E+00  4.18701487E+00
  4.20152462E+00
Alpha MO coefficients                      R   N=        5776
 -9.39223669E-06  4.63504301E-05  9.67090099E-05  7.83517256E-05 -4.47233630E-05
  2.85718947E-04 -1.22229079E-04 -7.07414232E-05  3.15183643E-05 -3.72645019E-05
 -2.60908424E-05 -2.21068405E-05 -1.63872175E-05  9.06913707E-06  3.07420920E-06
  9.96115154E-01  1.48506922E-02  2.20565995E-13 -2.48190107E-05  9.09687634E-05
 -2.42225609E-02 -1.04067048E-12  1.12947641E-04 -7.66546686E-05  3.08560863E-03
  1.63837797E-12 -1.94467157E-04  1.56715208E-04  8.48964232E-03  8.52989589E-03
  8.52669547E-03 -8.35300149E-13 -3.68586723E-13  3.38276379E-05  4.08999987E-05
  1.35172934E-04 -9.50685471E-13  5.30500256E-05  4.70426010E-05 -2.34032384E-04
  1.59511158E-12 -8.02526546E-05 -1.07098102E-04  1.32059105E-04 -5.64338533E-05
  5.21819821E-05  3.75739419E-12  2.40491997E-12 -1.40717010E-04 -9.39223657E-06
  4.63504322E-05 -9.67090111E-05  7.83517237E-05 -4.47233628E-05  2.85718950E-04
  1.22229080E-04 -7.07414237E-05  3.15183623E-05 -3.72645045E-05 -2.60908428E-05
 -2.21068412E-05  1.63872190E-05 -9.06913802E-06  3.07421007E-06 -3.48822062E-05
 -2.13428707E-04 -3.39766168E-05 -2.06141837E-04 -3.61293503E-05 -1.95814599E-04
 -3.61293506E-05 -1.95814599E-04 -3.48822064E-05 -2.13428707E-04 -3.39766177E-05
 -2.06141841E-04 -2.26102208E-05 -1.37093403E-04  1.66996072E-05  1.78994357E-05
 -1.73942165E-05  9.79548935E-04  4.42380387E-04  4.08190948E-04  6.41604910E-05
  2.01131282E-05 -1.01857806E-05 -2.48636903E-05  4.72428641E-05  1.68308833E-05
 -1.59174030E-05  1.82478457E-05  1.63678105E-05  5.45975004E-13 -1.99373279E-05
 -1.11999315E-05  7.69098673E-04 -4.38524400E-12  1.61889655E-04  1.39697315E-04
 -3.80942136E-03  1.70999502E-11 -6.29064407E-04 -1.72067330E-03 -3.02807162E-05
  8.42565655E-05  6.50645278E-05 -1.71176684E-12 -1.57982414E-12  8.34333150E-05
  9.92809325E-01  2.58336257E-02  1.24160542E-11 -7.89360117E-04 -5.14434497E-04
  1.16106403E-02  8.89735995E-12 -5.17152217E-04 -1.10232803E-04 -7.92381811E-03
 -7.91992683E-03 -7.94779036E-03 -6.72315621E-14  6.87794721E-13 -3.38852933E-05
 -2.26102211E-05 -1.37093405E-04 -1.66996077E-05  1.78994344E-05 -1.73942172E-05
  9.79548941E-04 -4.42380396E-04  4.08190944E-04  6.41604959E-05  2.01131300E-05
 -1.01857819E-05 -2.48636909E-05 -4.72428636E-05 -1.68308835E-05 -1.59174036E-05
 -3.87117955E-05  1.22513142E-04  2.22846852E-05 -3.17820051E-05 -5.68907035E-05
  7.10786138E-05 -5.68907056E-05  7.10786122E-05 -3.87117967E-05  1.22513140E-04
  2.22846859E-05 -3.17820039E-05 -7.02023142E-01 -3.54915510E-02 -2.42029846E-04
 -1.34588540E-05  6.73961600E-05  1.09399785E-02  8.09650862E-04 -2.41151658E-04
  9.96290654E-05  6.57459874E-03  6.48261823E-03  6.47552798E-03  7.14178946E-05
 -3.74329625E-05 -2.44914044E-05 -7.20152433E-10 -1.34016083E-08 -3.28543803E-05
 -9.42951881E-10 -1.77998517E-09 -2.73357769E-08  4.72889225E-04 -8.23050391E-09
  1.80781477E-08  6.01352076E-07  1.34869569E-03 -1.55106698E-07  1.98391740E-07
 -1.61556142E-08 -1.58257027E-08 -2.49188709E-08 -4.26217410E-05  1.13220792E-05
  7.49650501E-09  5.61822250E-09  2.55410931E-08 -3.29974865E-05  6.50605182E-10
  3.73059577E-09 -1.68696520E-07 -1.83350631E-05  4.83022694E-08 -5.09382852E-09
  1.64306880E-08  1.14286524E-08  1.30695394E-08 -8.71378849E-05  6.10775766E-05
  1.01445333E-09  7.02148645E-01  3.54978879E-02 -2.42038787E-04  1.34807219E-05
 -6.74117574E-05 -1.09420376E-02  8.09760427E-04  2.40950920E-04 -9.95799993E-05
 -6.57578342E-03 -6.48379550E-03 -6.47669702E-03  7.14433247E-05 -3.74402511E-05
  2.44986506E-05  9.79850113E-05 -1.25436486E-03  4.61528716E-05 -2.10827357E-03
  2.61840314E-05 -2.10662659E-03 -2.61854710E-05  2.10686321E-03 -9.79918700E-05
  1.25471865E-03 -4.61732070E-05  2.10849977E-03  7.02126644E-01  3.54515589E-02
  5.00093943E-05  1.22347209E-04 -8.72318079E-05 -1.15194278E-02 -6.12893185E-04
 -1.12300831E-03  2.74384072E-04 -6.62769720E-03 -6.58627868E-03 -6.54021983E-03
 -1.42272985E-04  4.07796995E-05  4.05451423E-05 -8.05656126E-06 -1.49938098E-04
  2.93705782E-09 -1.05408007E-05 -1.99143884E-05 -3.05842756E-04 -4.22677527E-08
 -9.21672373E-05  2.02245706E-04  6.72754062E-03 -1.20526747E-07 -1.73545819E-03
  2.21941715E-03 -1.80723335E-04 -1.77046517E-04 -2.78795423E-04  3.81111205E-09
 -1.01382479E-09  8.38423308E-05  6.28454505E-05  2.85697811E-04  2.95028518E-09
  7.29215999E-06  4.17375658E-05 -1.88713036E-03  1.62571787E-09  5.40313235E-04
 -5.69997675E-05  1.83775538E-04  1.27874916E-04  1.46176463E-04  7.79094528E-09
 -5.45911697E-09  1.13505474E-05  7.02001138E-01  3.54452138E-02 -4.99661347E-05
  1.22344804E-04 -8.72197602E-05 -1.15174719E-02  6.12748473E-04 -1.12305139E-03
  2.74401874E-04 -6.62652181E-03 -6.58511972E-03 -6.53906214E-03  1.42260214E-04
 -4.07730077E-05  4.05407616E-05 -3.83773848E-05  1.97925063E-03 -1.13778383E-04
  1.26551568E-03 -8.07246108E-06  1.32389166E-03 -8.06778086E-06  1.32351506E-03
 -3.83598678E-05  1.97902636E-03 -1.13770128E-04  1.26513877E-03 -6.17718111E-05
  1.65359150E-04 -5.07720518E-04 -5.13203974E-04  2.14949591E-04  1.32180091E-03
  1.79334595E-03  1.56550589E-03 -2.26776598E-04 -3.62263667E-04 -2.87792997E-04
 -7.11657291E-05 -3.48036210E-04  2.61303687E-04  2.21988602E-04 -2.79790663E-01
  1.02261533E+00  3.56790456E-11 -6.74329894E-04  1.04913998E-02  7.69586764E-02
 -9.10786609E-13  2.20338517E-05  2.03270179E-03 -2.19977765E-02 -2.09190270E-11
  2.92498562E-03 -3.90616919E-03 -1.64259292E-02 -1.57027246E-02 -1.66049743E-02
 -1.92598047E-11 -5.48613804E-12  4.76160844E-04 -3.18883130E-04 -7.10986241E-04
 -1.52735129E-12  8.32145264E-05 -1.60368395E-04  2.84535007E-03 -1.56924485E-11
  7.87950870E-04  1.63804661E-03 -5.15484784E-04 -6.19804498E-04 -6.53020766E-04
  1.86092120E-12  3.76951629E-12 -1.98854788E-04 -6.17718118E-05  1.65359148E-04
  5.07720532E-04 -5.13203970E-04  2.14949589E-04  1.32180090E-03 -1.79334597E-03
  1.56550588E-03 -2.26776568E-04 -3.62263676E-04 -2.87792985E-04 -7.11657288E-05
  3.48036206E-04 -2.61303694E-04  2.21988595E-04 -5.25477463E-05  1.26703483E-03