DMC_B3LYP_6-31ppgd,p_pcm_Acetone                                        
Freq      RB3LYP                                                      6-31++G(d,p)        
Number of atoms                            I               12
Info1-9                                    I   N=           9
          21          21        1002           0           0         100
           6          18        -502
Full Title                                 C   N=           3
DMC_B3LYP_6-31ppgd,p_pcm_Acetone    
Route                                      C   N=           6
# opt freq B3LYP/6-31++g(d,p) em=gd3bj scrf=(pcm,solvent=Ace
tone)       
Charge                                     I                0
Multiplicity                               I                1
Number of electrons                        I               48
Number of alpha electrons                  I               24
Number of beta electrons                   I               24
Number of basis functions                  I              150
Number of independent functions            I              150
Number of point charges in /Mol/           I                0
Number of translation vectors              I                0
Atomic numbers                             I   N=          12
           6           8           6           8           8           6
           1           1           1           1           1           1
Nuclear charges                            R   N=          12
  6.00000000E+00  8.00000000E+00  6.00000000E+00  8.00000000E+00  8.00000000E+00
  6.00000000E+00  1.00000000E+00  1.00000000E+00  1.00000000E+00  1.00000000E+00
  1.00000000E+00  1.00000000E+00
Current cartesian coordinates              R   N=          36
  4.44834501E+00 -3.62740892E-02 -1.83970474E-04  2.04748672E+00 -1.33920007E+00
  7.37025390E-05  1.65705964E-18  1.40214834E-01  3.42338939E-04 -2.90545213E-18
  2.44229565E+00  5.65698076E-05 -2.04748672E+00 -1.33920007E+00  7.37335235E-05
 -4.44834500E+00 -3.62740886E-02 -1.83969439E-04  4.62300089E+00  1.13365448E+00
 -1.68989233E+00  5.86633133E+00 -1.52582208E+00 -3.78825386E-04  4.62339015E+00
  1.13358560E+00  1.68953197E+00 -4.62300197E+00  1.13365230E+00 -1.68989374E+00
 -5.86633133E+00 -1.52582208E+00 -3.76079584E-04 -4.62338908E+00  1.13358776E+00
  1.68953057E+00
Number of symbols in /Mol/                 I                0
Force Field                                I                0
Atom Types                                 C   N=          12
                                                            
                                                            
                        
Int Atom Types                             I   N=          12
           0           0           0           0           0           0
           0           0           0           0           0           0
MM charges                                 R   N=          12
  0.00000000E+00  0.00000000E+00  0.00000000E+00  0.00000000E+00  0.00000000E+00
  0.00000000E+00  0.00000000E+00  0.00000000E+00  0.00000000E+00  0.00000000E+00
  0.00000000E+00  0.00000000E+00
Integer atomic weights                     I   N=          12
          12          16          12          16          16          12
           1           1           1           1           1           1
Real atomic weights                        R   N=          12
  1.20000000E+01  1.59949146E+01  1.20000000E+01  1.59949146E+01  1.59949146E+01
  1.20000000E+01  1.00782504E+00  1.00782504E+00  1.00782504E+00  1.00782504E+00
  1.00782504E+00  1.00782504E+00
Atom fragment info                         I   N=          12
           0           0           0           0           0           0
           0           0           0           0           0           0
Atom residue num                           I   N=          12
           0           0           0           0           0           0
           0           0           0           0           0           0
Nuclear spins                              I   N=          12
           0           0           0           0           0           0
           1           1           1           1           1           1
Nuclear ZEff                               R   N=          12
 -3.60000000E+00 -5.60000000E+00 -3.60000000E+00 -5.60000000E+00 -5.60000000E+00
 -3.60000000E+00 -1.00000000E+00 -1.00000000E+00 -1.00000000E+00 -1.00000000E+00
 -1.00000000E+00 -1.00000000E+00
Nuclear ZNuc                               R   N=          12
  6.00000000E+00  8.00000000E+00  6.00000000E+00  8.00000000E+00  8.00000000E+00
  6.00000000E+00  1.00000000E+00  1.00000000E+00  1.00000000E+00  1.00000000E+00
  1.00000000E+00  1.00000000E+00
Nuclear QMom                               R   N=          12
  0.00000000E+00  0.00000000E+00  0.00000000E+00  0.00000000E+00  0.00000000E+00
  0.00000000E+00  0.00000000E+00  0.00000000E+00  0.00000000E+00  0.00000000E+00
  0.00000000E+00  0.00000000E+00
Nuclear GFac                               R   N=          12
  0.00000000E+00  0.00000000E+00  0.00000000E+00  0.00000000E+00  0.00000000E+00
  0.00000000E+00  2.79284600E+00  2.79284600E+00  2.79284600E+00  2.79284600E+00
  2.79284600E+00  2.79284600E+00
MicOpt                                     I   N=          12
          -1          -1          -1          -1          -1          -1
          -1          -1          -1          -1          -1          -1
Number of residues                         I                0
Number of secondary structures             I                0
Redundant internal dimensions              I   N=           4
          38          11          17          10
Redundant internal coordinate indices      I   N=         152
           1           2           0           0           1           7
           0           0           1           8           0           0
           1           9           0           0           2           3
           0           0           3           4           0           0
           3           5           0           0           5           6
           0           0           6          10           0           0
           6          11           0           0           6          12
           0           0           2           1           7           0
           2           1           8           0           2           1
           9           0           7           1           8           0
           7           1           9           0           8           1
           9           0           1           2           3           0
           2           3           4           0           2           3
           5           0           4           3           5           0
           3           5           6           0           5           6
          10           0           5           6          11           0
           5           6          12           0          10           6
          11           0          10           6          12           0
          11           6          12           0           7           1
           2           3           8           1           2           3
           9           1           2           3           1           2
           3           4           1           2           3           5
           2           3           5           6           4           3
           5           6           3           5           6          10
           3           5           6          11           3           5
           6          12
Redundant internal coordinates             R   N=          38
  2.73161796E+00  2.06260803E+00  2.05655986E+00  2.06260817E+00  2.52603848E+00
  2.30208083E+00  2.52603848E+00  2.73161796E+00  2.06260804E+00  2.05655986E+00
  2.06260815E+00  1.92308636E+00  1.83437201E+00  1.92308143E+00  1.93089001E+00
  1.92006932E+00  1.93089098E+00  2.01867620E+00  2.19649781E+00  1.89018963E+00
  2.19649781E+00  2.01867620E+00  1.92308632E+00  1.83437202E+00  1.92308147E+00
  1.93088997E+00  1.92006933E+00  1.93089100E+00 -1.06093923E+00 -3.14159263E+00
  1.06094066E+00  1.76431640E-04  3.14139193E+00 -3.14139190E+00 -1.76404721E-04
  1.06094066E+00 -3.14159131E+00 -1.06093924E+00
ZRed-IntVec                                I   N=          38
           0           0           0           0           0           0
           0           0           0           0           0           0
           0           0           0           0           0           0
           0           0           0           0           0           0
           0           0           0           0           0           0
           0           0           0           0           0           0
           0           0
ZRed-FPVec                                 R   N=          38
  0.00000000E+00  0.00000000E+00  0.00000000E+00  0.00000000E+00  0.00000000E+00
  0.00000000E+00  0.00000000E+00  0.00000000E+00  0.00000000E+00  0.00000000E+00
  0.00000000E+00  0.00000000E+00  0.00000000E+00  0.00000000E+00  0.00000000E+00
  0.00000000E+00  0.00000000E+00  0.00000000E+00  0.00000000E+00  0.00000000E+00
  0.00000000E+00  0.00000000E+00  0.00000000E+00  0.00000000E+00  0.00000000E+00
  0.00000000E+00  0.00000000E+00  0.00000000E+00  0.00000000E+00  0.00000000E+00
  0.00000000E+00  0.00000000E+00  0.00000000E+00  0.00000000E+00  0.00000000E+00
  0.00000000E+00  0.00000000E+00  0.00000000E+00
ZRed-Constraint1                           R   N=          38
  2.73161796E+00  2.06260803E+00  2.05655986E+00  2.06260817E+00  2.52603848E+00
  2.30208083E+00  2.52603848E+00  2.73161796E+00  2.06260804E+00  2.05655986E+00
  2.06260815E+00  1.92308636E+00  1.83437201E+00  1.92308143E+00  1.93089001E+00
  1.92006932E+00  1.93089098E+00  2.01867620E+00  2.19649781E+00  1.89018963E+00
  2.19649781E+00  2.01867620E+00  1.92308632E+00  1.83437202E+00  1.92308147E+00
  1.93088997E+00  1.92006933E+00  1.93089100E+00 -1.06093923E+00 -3.14159263E+00
  1.06094066E+00  1.76431641E-04  3.14139193E+00 -3.14139190E+00 -1.76404721E-04
  1.06094066E+00 -3.14159131E+00 -1.06093924E+00
ZRed-Constraint2                           R   N=          38
  2.69429666E+00  2.06853508E+00  2.06655503E+00  2.06853548E+00  2.56323645E+00
  2.30890597E+00  2.56323657E+00  2.69429643E+00  2.06853599E+00  2.06655424E+00
  2.06853586E+00  1.92992545E+00  1.88643155E+00  1.92992497E+00  1.89161436E+00
  1.93288550E+00  1.89161389E+00  1.98679061E+00  2.19733616E+00  1.88851288E+00
  2.19733627E+00  1.98679038E+00  1.92992568E+00  1.88643189E+00  1.92992468E+00
  1.89161537E+00  1.93288500E+00  1.89161314E+00 -1.07363814E+00 -3.14158936E+00
  1.07364558E+00  1.78770467E-06 -3.14159182E+00 -3.14159081E+00  8.89088743E-07
  1.07364084E+00 -3.14159168E+00 -1.07364219E+00
SymInf integers                            I   N=          26
           1           1           1           1           1           0
           0           0           0           0           0           0
           0           0           0           0           0           0
           0           0           0           0           0           0
           0           0
RotTr to input orientation                 R   N=          12
 -9.91817264E-01 -1.26152408E-02  1.27040820E-01 -1.22619500E-01 -1.82875631E-01
 -9.75459359E-01  3.55383248E-02 -9.83055115E-01  1.79832334E-01  1.34347537E-02
  1.99244454E-02  1.64704888E-01
Number of contracted shells                I               54
Number of primitive shells                 I              108
Pure/Cartesian d shells                    I                1
Pure/Cartesian f shells                    I                0
Highest angular momentum                   I                2
Largest degree of contraction              I                6
Shell types                                I   N=          54
           0          -1          -1          -1           2           0
          -1          -1          -1           2           0          -1
          -1          -1           2           0          -1          -1
          -1           2           0          -1          -1          -1
           2           0          -1          -1          -1           2
           0           0           0           1           0           0
           0           1           0           0           0           1
           0           0           0           1           0           0
           0           1           0           0           0           1
Number of primitives per shell             I   N=          54
           6           3           1           1           1           6
           3           1           1           1           6           3
           1           1           1           6           3           1
           1           1           6           3           1           1
           1           6           3           1           1           1
           3           1           1           1           3           1
           1           1           3           1           1           1
           3           1           1           1           3           1
           1           1           3           1           1           1
Shell to atom map                          I   N=          54
           1           1           1           1           1           2
           2           2           2           2           3           3
           3           3           3           4           4           4
           4           4           5           5           5           5
           5           6           6           6           6           6
           7           7           7           7           8           8
           8           8           9           9           9           9
          10          10          10          10          11          11
          11          11          12          12          12          12
Primitive exponents                        R   N=         108
  3.04752488E+03  4.57369518E+02  1.03948685E+02  2.92101553E+01  9.28666296E+00
  3.16392696E+00  7.86827235E+00  1.88128854E+00  5.44249258E-01  1.68714478E-01
  4.38000000E-02  8.00000000E-01  5.48467166E+03  8.25234946E+02  1.88046958E+02
  5.29645000E+01  1.68975704E+01  5.79963534E+00  1.55396162E+01  3.59993359E+00
  1.01376175E+00  2.70005823E-01  8.45000000E-02  8.00000000E-01  3.04752488E+03
  4.57369518E+02  1.03948685E+02  2.92101553E+01  9.28666296E+00  3.16392696E+00
  7.86827235E+00  1.88128854E+00  5.44249258E-01  1.68714478E-01  4.38000000E-02
  8.00000000E-01  5.48467166E+03  8.25234946E+02  1.88046958E+02  5.29645000E+01
  1.68975704E+01  5.79963534E+00  1.55396162E+01  3.59993359E+00  1.01376175E+00
  2.70005823E-01  8.45000000E-02  8.00000000E-01  5.48467166E+03  8.25234946E+02
  1.88046958E+02  5.29645000E+01  1.68975704E+01  5.79963534E+00  1.55396162E+01
  3.59993359E+00  1.01376175E+00  2.70005823E-01  8.45000000E-02  8.00000000E-01
  3.04752488E+03  4.57369518E+02  1.03948685E+02  2.92101553E+01  9.28666296E+00
  3.16392696E+00  7.86827235E+00  1.88128854E+00  5.44249258E-01  1.68714478E-01
  4.38000000E-02  8.00000000E-01  1.87311370E+01  2.82539436E+00  6.40121692E-01
  1.61277759E-01  3.60000000E-02  1.10000000E+00  1.87311370E+01  2.82539436E+00
  6.40121692E-01  1.61277759E-01  3.60000000E-02  1.10000000E+00  1.87311370E+01
  2.82539436E+00  6.40121692E-01  1.61277759E-01  3.60000000E-02  1.10000000E+00
  1.87311370E+01  2.82539436E+00  6.40121692E-01  1.61277759E-01  3.60000000E-02
  1.10000000E+00  1.87311370E+01  2.82539436E+00  6.40121692E-01  1.61277759E-01
  3.60000000E-02  1.10000000E+00  1.87311370E+01  2.82539436E+00  6.40121692E-01
  1.61277759E-01  3.60000000E-02  1.10000000E+00
Contraction coefficients                   R   N=         108
  1.83473713E-03  1.40373228E-02  6.88426223E-02  2.32184443E-01  4.67941348E-01
  3.62311985E-01 -1.19332420E-01 -1.60854152E-01  1.14345644E+00  1.00000000E+00
  1.00000000E+00  1.00000000E+00  1.83107443E-03  1.39501722E-02  6.84450781E-02
  2.32714336E-01  4.70192898E-01  3.58520853E-01 -1.10777550E-01 -1.48026263E-01
  1.13076702E+00  1.00000000E+00  1.00000000E+00  1.00000000E+00  1.83473713E-03
  1.40373228E-02  6.88426223E-02  2.32184443E-01  4.67941348E-01  3.62311985E-01
 -1.19332420E-01 -1.60854152E-01  1.14345644E+00  1.00000000E+00  1.00000000E+00
  1.00000000E+00  1.83107443E-03  1.39501722E-02  6.84450781E-02  2.32714336E-01
  4.70192898E-01  3.58520853E-01 -1.10777550E-01 -1.48026263E-01  1.13076702E+00
  1.00000000E+00  1.00000000E+00  1.00000000E+00  1.83107443E-03  1.39501722E-02
  6.84450781E-02  2.32714336E-01  4.70192898E-01  3.58520853E-01 -1.10777550E-01
 -1.48026263E-01  1.13076702E+00  1.00000000E+00  1.00000000E+00  1.00000000E+00
  1.83473713E-03  1.40373228E-02  6.88426223E-02  2.32184443E-01  4.67941348E-01
  3.62311985E-01 -1.19332420E-01 -1.60854152E-01  1.14345644E+00  1.00000000E+00
  1.00000000E+00  1.00000000E+00  3.34946043E-02  2.34726953E-01  8.13757326E-01
  1.00000000E+00  1.00000000E+00  1.00000000E+00  3.34946043E-02  2.34726953E-01
  8.13757326E-01  1.00000000E+00  1.00000000E+00  1.00000000E+00  3.34946043E-02
  2.34726953E-01  8.13757326E-01  1.00000000E+00  1.00000000E+00  1.00000000E+00
  3.34946043E-02  2.34726953E-01  8.13757326E-01  1.00000000E+00  1.00000000E+00
  1.00000000E+00  3.34946043E-02  2.34726953E-01  8.13757326E-01  1.00000000E+00
  1.00000000E+00  1.00000000E+00  3.34946043E-02  2.34726953E-01  8.13757326E-01
  1.00000000E+00  1.00000000E+00  1.00000000E+00
P(S=P) Contraction coefficients            R   N=         108
  0.00000000E+00  0.00000000E+00  0.00000000E+00  0.00000000E+00  0.00000000E+00
  0.00000000E+00  6.89990666E-02  3.16423961E-01  7.44308291E-01  1.00000000E+00
  1.00000000E+00  0.00000000E+00  0.00000000E+00  0.00000000E+00  0.00000000E+00
  0.00000000E+00  0.00000000E+00  0.00000000E+00  7.08742682E-02  3.39752839E-01
  7.27158577E-01  1.00000000E+00  1.00000000E+00  0.00000000E+00  0.00000000E+00
  0.00000000E+00  0.00000000E+00  0.00000000E+00  0.00000000E+00  0.00000000E+00
  6.89990666E-02  3.16423961E-01  7.44308291E-01  1.00000000E+00  1.00000000E+00
  0.00000000E+00  0.00000000E+00  0.00000000E+00  0.00000000E+00  0.00000000E+00
  0.00000000E+00  0.00000000E+00  7.08742682E-02  3.39752839E-01  7.27158577E-01
  1.00000000E+00  1.00000000E+00  0.00000000E+00  0.00000000E+00  0.00000000E+00
  0.00000000E+00  0.00000000E+00  0.00000000E+00  0.00000000E+00  7.08742682E-02
  3.39752839E-01  7.27158577E-01  1.00000000E+00  1.00000000E+00  0.00000000E+00
  0.00000000E+00  0.00000000E+00  0.00000000E+00  0.00000000E+00  0.00000000E+00
  0.00000000E+00  6.89990666E-02  3.16423961E-01  7.44308291E-01  1.00000000E+00
  1.00000000E+00  0.00000000E+00  0.00000000E+00  0.00000000E+00  0.00000000E+00
  0.00000000E+00  0.00000000E+00  0.00000000E+00  0.00000000E+00  0.00000000E+00
  0.00000000E+00  0.00000000E+00  0.00000000E+00  0.00000000E+00  0.00000000E+00
  0.00000000E+00  0.00000000E+00  0.00000000E+00  0.00000000E+00  0.00000000E+00
  0.00000000E+00  0.00000000E+00  0.00000000E+00  0.00000000E+00  0.00000000E+00
  0.00000000E+00  0.00000000E+00  0.00000000E+00  0.00000000E+00  0.00000000E+00
  0.00000000E+00  0.00000000E+00  0.00000000E+00  0.00000000E+00  0.00000000E+00
  0.00000000E+00  0.00000000E+00  0.00000000E+00
Coordinates of each shell                  R   N=         162
  4.44834501E+00 -3.62740892E-02 -1.83970474E-04  4.44834501E+00 -3.62740892E-02
 -1.83970474E-04  4.44834501E+00 -3.62740892E-02 -1.83970474E-04  4.44834501E+00
 -3.62740892E-02 -1.83970474E-04  4.44834501E+00 -3.62740892E-02 -1.83970474E-04
  2.04748672E+00 -1.33920007E+00  7.37025390E-05  2.04748672E+00 -1.33920007E+00
  7.37025390E-05  2.04748672E+00 -1.33920007E+00  7.37025390E-05  2.04748672E+00
 -1.33920007E+00  7.37025390E-05  2.04748672E+00 -1.33920007E+00  7.37025390E-05
  1.65705964E-18  1.40214834E-01  3.42338939E-04  1.65705964E-18  1.40214834E-01
  3.42338939E-04  1.65705964E-18  1.40214834E-01  3.42338939E-04  1.65705964E-18
  1.40214834E-01  3.42338939E-04  1.65705964E-18  1.40214834E-01  3.42338939E-04
 -2.90545213E-18  2.44229565E+00  5.65698076E-05 -2.90545213E-18  2.44229565E+00
  5.65698076E-05 -2.90545213E-18  2.44229565E+00  5.65698076E-05 -2.90545213E-18
  2.44229565E+00  5.65698076E-05 -2.90545213E-18  2.44229565E+00  5.65698076E-05
 -2.04748672E+00 -1.33920007E+00  7.37335235E-05 -2.04748672E+00 -1.33920007E+00
  7.37335235E-05 -2.04748672E+00 -1.33920007E+00  7.37335235E-05 -2.04748672E+00
 -1.33920007E+00  7.37335235E-05 -2.04748672E+00 -1.33920007E+00  7.37335235E-05
 -4.44834500E+00 -3.62740886E-02 -1.83969439E-04 -4.44834500E+00 -3.62740886E-02
 -1.83969439E-04 -4.44834500E+00 -3.62740886E-02 -1.83969439E-04 -4.44834500E+00
 -3.62740886E-02 -1.83969439E-04 -4.44834500E+00 -3.62740886E-02 -1.83969439E-04
  4.62300089E+00  1.13365448E+00 -1.68989233E+00  4.62300089E+00  1.13365448E+00
 -1.68989233E+00  4.62300089E+00  1.13365448E+00 -1.68989233E+00  4.62300089E+00
  1.13365448E+00 -1.68989233E+00  5.86633133E+00 -1.52582208E+00 -3.78825386E-04
  5.86633133E+00 -1.52582208E+00 -3.78825386E-04  5.86633133E+00 -1.52582208E+00
 -3.78825386E-04  5.86633133E+00 -1.52582208E+00 -3.78825386E-04  4.62339015E+00
  1.13358560E+00  1.68953197E+00  4.62339015E+00  1.13358560E+00  1.68953197E+00
  4.62339015E+00  1.13358560E+00  1.68953197E+00  4.62339015E+00  1.13358560E+00
  1.68953197E+00 -4.62300197E+00  1.13365230E+00 -1.68989374E+00 -4.62300197E+00
  1.13365230E+00 -1.68989374E+00 -4.62300197E+00  1.13365230E+00 -1.68989374E+00
 -4.62300197E+00  1.13365230E+00 -1.68989374E+00 -5.86633133E+00 -1.52582208E+00
 -3.76079584E-04 -5.86633133E+00 -1.52582208E+00 -3.76079584E-04 -5.86633133E+00
 -1.52582208E+00 -3.76079584E-04 -5.86633133E+00 -1.52582208E+00 -3.76079584E-04
 -4.62338908E+00  1.13358776E+00  1.68953057E+00 -4.62338908E+00  1.13358776E+00
  1.68953057E+00 -4.62338908E+00  1.13358776E+00  1.68953057E+00 -4.62338908E+00
  1.13358776E+00  1.68953057E+00
Num ILSW                                   I              100
ILSW                                       I   N=         100
           0           1           0           0           2           0
           0           0           0           0         402          -1
           5           0           0           0           2           0
           0           0           1           0           1           0
           1           0           0           0           0           0
           0           0      100000           0          -1           0
           0           0           0           0           0           0
           0           0           0           1           0           0
           0 -2000000000           1           0           0           0
           0           0         141          52           0           0
           0           0           5           0           0           0
           0           0           0           0           0           1
           0           0           0           0           0           0
           0           0           0           0           0           0
           0           0           0           0           0           0
           0           0           0           0           0           0
           0           0           0           0
Num RLSW                                   I               52
RLSW                                       R   N=          52
  8.00000000E-01  7.20000000E-01  1.00000000E+00  8.10000000E-01  2.00000000E-01
  0.00000000E+00  0.00000000E+00  1.00000000E+00  0.00000000E+00  0.00000000E+00
  0.00000000E+00  0.00000000E+00  1.00000000E+00  0.00000000E+00  0.00000000E+00
  0.00000000E+00  0.00000000E+00  1.00000000E+00  0.00000000E+00  0.00000000E+00
  0.00000000E+00  0.00000000E+00  1.00000000E+00  0.00000000E+00  0.00000000E+00
  0.00000000E+00  0.00000000E+00  1.00000000E+00  0.00000000E+00  0.00000000E+00
  0.00000000E+00  0.00000000E+00  1.00000000E+00  0.00000000E+00  0.00000000E+00
  0.00000000E+00  0.00000000E+00  0.00000000E+00  1.00000000E+00  1.00000000E+00
  0.00000000E+00  1.00000000E+00  0.00000000E+00  0.00000000E+00  0.00000000E+00
  0.00000000E+00  0.00000000E+00  0.00000000E+00  0.00000000E+00  0.00000000E+00
  0.00000000E+00  0.00000000E+00
MxBond                                     I                4
NBond                                      I   N=          12
           4           2           3           1           2           4
           1           1           1           1           1           1
IBond                                      I   N=          48
           2           7           8           9           1           3
           0           0           2           4           5           0
           3           0           0           0           3           6
           0           0           5          10          11          12
           1           0           0           0           1           0
           0           0           1           0           0           0
           6           0           0           0           6           0
           0           0           6           0           0           0
RBond                                      R   N=          48
  1.00000000E+00  1.00000000E+00  1.00000000E+00  1.00000000E+00  1.00000000E+00
  1.50000000E+00  0.00000000E+00  0.00000000E+00  1.50000000E+00  2.00000000E+00
  1.50000000E+00  0.00000000E+00  2.00000000E+00  0.00000000E+00  0.00000000E+00
  0.00000000E+00  1.50000000E+00  1.00000000E+00  0.00000000E+00  0.00000000E+00
  1.00000000E+00  1.00000000E+00  1.00000000E+00  1.00000000E+00  1.00000000E+00
  0.00000000E+00  0.00000000E+00  0.00000000E+00  1.00000000E+00  0.00000000E+00
  0.00000000E+00  0.00000000E+00  1.00000000E+00  0.00000000E+00  0.00000000E+00
  0.00000000E+00  1.00000000E+00  0.00000000E+00  0.00000000E+00  0.00000000E+00
  1.00000000E+00  0.00000000E+00  0.00000000E+00  0.00000000E+00  1.00000000E+00
  0.00000000E+00  0.00000000E+00  0.00000000E+00
Virial Ratio                               R      2.009207105995763E+00
SCF Energy                                 R     -3.436507875296659E+02
Total Energy                               R     -3.436507875296659E+02
RMS Force                                  R      4.122561480070582E-05
RMS Density                                R      2.652937598200099E-09
NImag                                      I                0
Job Status                                 I                1
Nuclear derivative order                   I                2
PCM-NSphere                                I               12
PCM-NGenSphere                             I               12
PCM-NOrd                                   I   N=          12
           1           2           3           4           5           6
           7           8           9          10          11          12
PCM-SphereRadii                            R   N=          12
  4.00253442E+00  3.63772279E+00  4.00253442E+00  3.63772279E+00  3.63772279E+00
  4.00253442E+00  2.99956228E+00  2.99956228E+00  2.99956228E+00  2.99956228E+00
  2.99956228E+00  2.99956228E+00
PCM-SphereLoc                              R   N=          36
  4.44834501E+00 -3.62740892E-02 -1.83970474E-04  2.04748672E+00 -1.33920007E+00
  7.37025390E-05  1.65705964E-18  1.40214834E-01  3.42338939E-04 -2.90545213E-18
  2.44229565E+00  5.65698076E-05 -2.04748672E+00 -1.33920007E+00  7.37335235E-05
 -4.44834500E+00 -3.62740886E-02 -1.83969439E-04  4.62300089E+00  1.13365448E+00
 -1.68989233E+00  5.86633133E+00 -1.52582208E+00 -3.78825386E-04  4.62339015E+00
  1.13358560E+00  1.68953197E+00 -4.62300197E+00  1.13365230E+00 -1.68989374E+00
 -5.86633133E+00 -1.52582208E+00 -3.76079584E-04 -4.62338908E+00  1.13358776E+00
  1.68953057E+00
External E-field                           R   N=          35
  0.00000000E+00  0.00000000E+00  0.00000000E+00  0.00000000E+00  0.00000000E+00
  0.00000000E+00  0.00000000E+00  0.00000000E+00  0.00000000E+00  0.00000000E+00
  0.00000000E+00  0.00000000E+00  0.00000000E+00  0.00000000E+00  0.00000000E+00
  0.00000000E+00  0.00000000E+00  0.00000000E+00  0.00000000E+00  0.00000000E+00
  0.00000000E+00  0.00000000E+00  0.00000000E+00  0.00000000E+00  0.00000000E+00
  0.00000000E+00  0.00000000E+00  0.00000000E+00  0.00000000E+00  0.00000000E+00
  0.00000000E+00  0.00000000E+00  0.00000000E+00  0.00000000E+00  0.00000000E+00
IOpCl                                      I                0
IROHF                                      I                0
Alpha Orbital Energies                     R   N=         150
 -1.92174104E+01 -1.92174067E+01 -1.91604095E+01 -1.03783756E+01 -1.02492276E+01
 -1.02492252E+01 -1.15885640E+00 -1.07100401E+00 -1.03611625E+00 -7.68672861E-01
 -7.05538426E-01 -5.88953985E-01 -5.56842125E-01 -5.19321104E-01 -5.07852543E-01
 -4.66875954E-01 -4.55925542E-01 -4.43727073E-01 -4.10982911E-01 -3.88123795E-01
 -3.72831130E-01 -3.27023825E-01 -3.20189736E-01 -3.09055912E-01 -7.19025463E-03
  8.93301224E-03  1.69519575E-02  2.16295545E-02  2.97083858E-02  3.23342412E-02
  4.18286671E-02  5.11383351E-02  6.79605369E-02  8.73123500E-02  9.29264319E-02
  1.13622537E-01  1.15257250E-01  1.16997662E-01  1.27430295E-01  1.29328232E-01
  1.40418634E-01  1.41354316E-01  1.48042869E-01  1.68341702E-01  1.70434848E-01
  1.88637755E-01  1.99528305E-01  2.09493609E-01  2.23295167E-01  2.35164204E-01
  2.48965850E-01  2.51195605E-01  2.52712643E-01  2.71431770E-01  2.90069895E-01
  2.90214183E-01  3.09491408E-01  3.23478409E-01  3.28757142E-01  3.49496464E-01
  3.50428431E-01  3.77953003E-01  3.84235135E-01  4.10794382E-01  4.64451430E-01
  5.24076149E-01  6.90574545E-01  7.01088742E-01  7.06796196E-01  7.15727439E-01
  7.23227157E-01  7.29519738E-01  7.50441530E-01  7.81879565E-01  8.48783637E-01