Li_B3LYP_6-31ppgd,p_pcm_Water                                           
Freq      RB3LYP                                                      6-31++G(d,p)        
Number of atoms                            I                1
Info1-9                                    I   N=           9
          10          10        1002           0           0         100
           6          18        -502
Full Title                                 C   N=           3
Li_B3LYP_6-31ppgd,p_pcm_Water       
Route                                      C   N=           6
# opt freq B3LYP/6-31++g(d,p) em=gd3bj scrf=(pcm,solvent=Wat
er)         
Charge                                     I                1
Multiplicity                               I                1
Number of electrons                        I                2
Number of alpha electrons                  I                1
Number of beta electrons                   I                1
Number of basis functions                  I               19
Number of independent functions            I               19
Number of point charges in /Mol/           I                0
Number of translation vectors              I                0
Atomic numbers                             I   N=           1
           3
Nuclear charges                            R   N=           1
  3.00000000E+00
Current cartesian coordinates              R   N=           3
  0.00000000E+00  0.00000000E+00  0.00000000E+00
Number of symbols in /Mol/                 I                0
Force Field                                I                0
Atom Types                                 C   N=           1
            
Int Atom Types                             I   N=           1
           0
MM charges                                 R   N=           1
  0.00000000E+00
Integer atomic weights                     I   N=           1
           7
Real atomic weights                        R   N=           1
  7.01600450E+00
Atom fragment info                         I   N=           1
           0
Atom residue num                           I   N=           1
           0
Nuclear spins                              I   N=           1
           3
Nuclear ZEff                               R   N=           1
 -1.35000000E+00
Nuclear ZNuc                               R   N=           1
  3.00000000E+00
Nuclear QMom                               R   N=           1
 -4.01000000E+00
Nuclear GFac                               R   N=           1
  3.25642400E+00
MicOpt                                     I   N=           1
          -1
Number of residues                         I                0
Number of secondary structures             I                0
SymInf integers                            I   N=          26
           1           8           1           1           1           1
          -1          -1          -1           1          -1          -1
          -1           1          -1          -1          -1          -1
           1           1           1          -1           1           1
           1          -1
RotTr to input orientation                 R   N=          12
  0.00000000E+00  0.00000000E+00 -1.00000000E+00  0.00000000E+00  1.00000000E+00
  0.00000000E+00  1.00000000E+00  0.00000000E+00  0.00000000E+00  0.00000000E+00
  0.00000000E+00  0.00000000E+00
Number of contracted shells                I                5
Number of primitive shells                 I               12
Pure/Cartesian d shells                    I                1
Pure/Cartesian f shells                    I                0
Highest angular momentum                   I                2
Largest degree of contraction              I                6
Shell types                                I   N=           5
           0          -1          -1          -1           2
Number of primitives per shell             I   N=           5
           6           3           1           1           1
Shell to atom map                          I   N=           5
           1           1           1           1           1
Primitive exponents                        R   N=          12
  6.42418915E+02  9.67985153E+01  2.20911212E+01  6.20107025E+00  1.93511768E+00
  6.36735789E-01  2.32491841E+00  6.32430356E-01  7.90534348E-02  3.59619717E-02
  7.40000000E-03  2.00000000E-01
Contraction coefficients                   R   N=          12
  2.14260781E-03  1.62088715E-02  7.73155725E-02  2.45786052E-01  4.70189004E-01
  3.45470845E-01 -3.50917457E-02 -1.91232843E-01  1.08398779E+00  1.00000000E+00
  1.00000000E+00  1.00000000E+00
P(S=P) Contraction coefficients            R   N=          12
  0.00000000E+00  0.00000000E+00  0.00000000E+00  0.00000000E+00  0.00000000E+00
  0.00000000E+00  8.94150804E-03  1.41009464E-01  9.45363695E-01  1.00000000E+00
  1.00000000E+00  0.00000000E+00
Coordinates of each shell                  R   N=          15
  0.00000000E+00  0.00000000E+00  0.00000000E+00  0.00000000E+00  0.00000000E+00
  0.00000000E+00  0.00000000E+00  0.00000000E+00  0.00000000E+00  0.00000000E+00
  0.00000000E+00  0.00000000E+00  0.00000000E+00  0.00000000E+00  0.00000000E+00
Num ILSW                                   I              100
ILSW                                       I   N=         100
           0           1           0           0           2           0
           0           0           0           0         402          -1
           5           0           0           0           2           0
           0           0           1           0           1           0
           1           0           0           0           0           0
           0           0      100000           0          -1           0
           0           0           0           0           0           0
           0           0           0           1           0           0
           0 -2000000000           1           0           0           0
           0           0         141          52           0           0
           0           0           5           0           0           0
           0           0           0           0           0           1
           0           0           0           0           0           0
           0           0           0           0           0           0
           0           0           0           0           0           0
           0           0           0           0           0           0
           0           0           0           0
Num RLSW                                   I               52
RLSW                                       R   N=          52
  8.00000000E-01  7.20000000E-01  1.00000000E+00  8.10000000E-01  2.00000000E-01
  0.00000000E+00  0.00000000E+00  1.00000000E+00  0.00000000E+00  0.00000000E+00
  0.00000000E+00  0.00000000E+00  1.00000000E+00  0.00000000E+00  0.00000000E+00
  0.00000000E+00  0.00000000E+00  1.00000000E+00  0.00000000E+00  0.00000000E+00
  0.00000000E+00  0.00000000E+00  1.00000000E+00  0.00000000E+00  0.00000000E+00
  0.00000000E+00  0.00000000E+00  1.00000000E+00  0.00000000E+00  0.00000000E+00
  0.00000000E+00  0.00000000E+00  1.00000000E+00  0.00000000E+00  0.00000000E+00
  0.00000000E+00  0.00000000E+00  0.00000000E+00  1.00000000E+00  1.00000000E+00
  0.00000000E+00  1.00000000E+00  0.00000000E+00  0.00000000E+00  0.00000000E+00
  0.00000000E+00  0.00000000E+00  0.00000000E+00  0.00000000E+00  0.00000000E+00
  0.00000000E+00  0.00000000E+00
MxBond                                     I                1
NBond                                      I   N=           1
           0
IBond                                      I   N=           1
           0
RBond                                      R   N=           1
  0.00000000E+00
Virial Ratio                               R      2.040048371070646E+00
SCF Energy                                 R     -7.478419523953754E+00
Total Energy                               R     -7.478419523953754E+00
RMS Force                                  R      2.673070547351038E-17
RMS Density                                R      8.626981191353737E-12
NImag                                      I                0
Job Status                                 I                1
Nuclear derivative order                   I                2
PCM-NSphere                                I                1
PCM-NGenSphere                             I                1
PCM-NOrd                                   I   N=           1
           1
PCM-SphereRadii                            R   N=           1
  2.54744530E+00
PCM-SphereLoc                              R   N=           3
  0.00000000E+00  0.00000000E+00  0.00000000E+00
External E-field                           R   N=          35
  0.00000000E+00  0.00000000E+00  0.00000000E+00  0.00000000E+00  0.00000000E+00
  0.00000000E+00  0.00000000E+00  0.00000000E+00  0.00000000E+00  0.00000000E+00
  0.00000000E+00  0.00000000E+00  0.00000000E+00  0.00000000E+00  0.00000000E+00
  0.00000000E+00  0.00000000E+00  0.00000000E+00  0.00000000E+00  0.00000000E+00
  0.00000000E+00  0.00000000E+00  0.00000000E+00  0.00000000E+00  0.00000000E+00
  0.00000000E+00  0.00000000E+00  0.00000000E+00  0.00000000E+00  0.00000000E+00
  0.00000000E+00  0.00000000E+00  0.00000000E+00  0.00000000E+00  0.00000000E+00
IOpCl                                      I                0
IROHF                                      I                0
Alpha Orbital Energies                     R   N=          19
 -1.96498963E+00 -2.67128474E-03  1.00133071E-02  1.00133071E-02  1.00133071E-02
  4.39927111E-02  7.76324644E-02  7.76324644E-02  7.76324644E-02  2.11597093E-01
  2.11597093E-01  2.11597093E-01  2.49291254E-01  5.76816674E-01  5.76816674E-01
  5.76823254E-01  5.76823254E-01  5.76823254E-01  1.28495178E+00
Alpha MO coefficients                      R   N=         361
  9.99135628E-01  5.90164458E-02  0.00000000E+00  0.00000000E+00  0.00000000E+00
 -3.27810652E-02  0.00000000E+00  0.00000000E+00  0.00000000E+00  5.60644768E-03
  0.00000000E+00  0.00000000E+00  0.00000000E+00 -7.09434196E-03 -7.09434196E-03
 -7.09434196E-03  0.00000000E+00  0.00000000E+00  0.00000000E+00 -7.46934535E-02
  1.88691497E-01  0.00000000E+00  0.00000000E+00  0.00000000E+00 -5.10418727E-02
  0.00000000E+00  0.00000000E+00  0.00000000E+00  9.66119380E-01  0.00000000E+00
  0.00000000E+00  0.00000000E+00 -2.17000169E-02 -2.17000169E-02 -2.17000169E-02
  0.00000000E+00  0.00000000E+00  0.00000000E+00  0.00000000E+00  0.00000000E+00
  0.00000000E+00  0.00000000E+00  7.72368116E-02  0.00000000E+00  0.00000000E+00
  0.00000000E+00 -1.08381850E-01  0.00000000E+00  0.00000000E+00  0.00000000E+00
  1.03439173E+00  0.00000000E+00  0.00000000E+00  0.00000000E+00  0.00000000E+00
  0.00000000E+00  0.00000000E+00  0.00000000E+00  0.00000000E+00  0.00000000E+00
  7.72368116E-02  0.00000000E+00  0.00000000E+00  0.00000000E+00 -1.08381850E-01
  0.00000000E+00  0.00000000E+00  0.00000000E+00  1.03439173E+00  0.00000000E+00
  0.00000000E+00  0.00000000E+00  0.00000000E+00  0.00000000E+00  0.00000000E+00
  0.00000000E+00  0.00000000E+00  0.00000000E+00  7.72368116E-02  0.00000000E+00
  0.00000000E+00  0.00000000E+00 -1.08381850E-01  0.00000000E+00  0.00000000E+00
  0.00000000E+00  1.03439173E+00  0.00000000E+00  0.00000000E+00  0.00000000E+00
  0.00000000E+00  0.00000000E+00  0.00000000E+00  0.00000000E+00  0.00000000E+00
 -2.12161586E-01 -2.73922294E-01  0.00000000E+00  0.00000000E+00  0.00000000E+00
  1.56477964E+00  0.00000000E+00  0.00000000E+00  0.00000000E+00 -9.91074555E-01
  0.00000000E+00  0.00000000E+00  0.00000000E+00  3.25134123E-02  3.25134123E-02
  3.25134123E-02  0.00000000E+00  0.00000000E+00  0.00000000E+00  0.00000000E+00
  0.00000000E+00 -4.36769603E-02  0.00000000E+00  0.00000000E+00  0.00000000E+00
  1.18675171E+00  0.00000000E+00  0.00000000E+00  0.00000000E+00 -5.38813038E-01
  0.00000000E+00  0.00000000E+00  0.00000000E+00  0.00000000E+00  0.00000000E+00
  0.00000000E+00  0.00000000E+00  0.00000000E+00  0.00000000E+00  0.00000000E+00
  0.00000000E+00 -4.36769603E-02  0.00000000E+00  0.00000000E+00  0.00000000E+00
  1.18675171E+00  0.00000000E+00  0.00000000E+00  0.00000000E+00 -5.38813038E-01
  0.00000000E+00  0.00000000E+00  0.00000000E+00  0.00000000E+00  0.00000000E+00
  0.00000000E+00  0.00000000E+00  0.00000000E+00  0.00000000E+00  0.00000000E+00
  0.00000000E+00 -4.36769603E-02  0.00000000E+00  0.00000000E+00  0.00000000E+00
  1.18675171E+00  0.00000000E+00  0.00000000E+00  0.00000000E+00 -5.38813038E-01
  0.00000000E+00  0.00000000E+00  0.00000000E+00  0.00000000E+00  0.00000000E+00
  0.00000000E+00  0.00000000E+00  0.00000000E+00  0.00000000E+00  0.00000000E+00
  1.76872542E+00  0.00000000E+00  0.00000000E+00  0.00000000E+00 -1.58261560E+00
  0.00000000E+00  0.00000000E+00  0.00000000E+00  3.37501798E-01  0.00000000E+00
  0.00000000E+00  0.00000000E+00  0.00000000E+00  0.00000000E+00  0.00000000E+00
  0.00000000E+00  0.00000000E+00  1.76872542E+00  0.00000000E+00  0.00000000E+00
  0.00000000E+00 -1.58261560E+00  0.00000000E+00  0.00000000E+00  0.00000000E+00
  3.37501798E-01  0.00000000E+00  0.00000000E+00  0.00000000E+00  0.00000000E+00
  0.00000000E+00  0.00000000E+00  0.00000000E+00  0.00000000E+00  0.00000000E+00
  0.00000000E+00  0.00000000E+00  1.76872542E+00  0.00000000E+00  0.00000000E+00
  0.00000000E+00 -1.58261560E+00  0.00000000E+00  0.00000000E+00  0.00000000E+00
  3.37501798E-01  0.00000000E+00  0.00000000E+00  0.00000000E+00  0.00000000E+00
  0.00000000E+00  0.00000000E+00  0.00000000E+00  1.09207068E-01  3.89673590E+00
  0.00000000E+00  0.00000000E+00  0.00000000E+00 -3.33923197E+00  0.00000000E+00
  0.00000000E+00  0.00000000E+00  7.15399493E-01  0.00000000E+00  0.00000000E+00
  0.00000000E+00 -3.72532019E-01 -3.72532019E-01 -3.72532019E-01  0.00000000E+00
  0.00000000E+00  0.00000000E+00  9.58627182E-17  1.46090927E-14 -0.00000000E+00
 -0.00000000E+00 -0.00000000E+00 -1.51185728E-15 -0.00000000E+00 -0.00000000E+00
 -0.00000000E+00 -3.56952412E-16 -0.00000000E+00 -0.00000000E+00 -0.00000000E+00
 -1.34165744E-01 -7.91112714E-01  9.25278459E-01 -0.00000000E+00 -0.00000000E+00
 -0.00000000E+00  1.06301808E-16 -4.31553615E-15  0.00000000E+00  0.00000000E+00
  0.00000000E+00  6.44481966E-15  0.00000000E+00  0.00000000E+00  0.00000000E+00
 -2.48534811E-15  0.00000000E+00  0.00000000E+00  0.00000000E+00  9.90958906E-01
 -6.11670396E-01 -3.79288510E-01  0.00000000E+00  0.00000000E+00  0.00000000E+00
  0.00000000E+00  0.00000000E+00  0.00000000E+00  0.00000000E+00  0.00000000E+00
  0.00000000E+00  0.00000000E+00  0.00000000E+00  0.00000000E+00  0.00000000E+00
  0.00000000E+00  0.00000000E+00  0.00000000E+00  0.00000000E+00  0.00000000E+00
  0.00000000E+00  0.00000000E+00  1.00000000E+00  0.00000000E+00  0.00000000E+00
  0.00000000E+00  0.00000000E+00  0.00000000E+00  0.00000000E+00  0.00000000E+00
  0.00000000E+00  0.00000000E+00  0.00000000E+00  0.00000000E+00  0.00000000E+00
  0.00000000E+00  0.00000000E+00  0.00000000E+00  0.00000000E+00  0.00000000E+00
  0.00000000E+00  0.00000000E+00  1.00000000E+00  0.00000000E+00  0.00000000E+00
  0.00000000E+00  0.00000000E+00  0.00000000E+00  0.00000000E+00  0.00000000E+00
  0.00000000E+00  0.00000000E+00  0.00000000E+00  0.00000000E+00  0.00000000E+00
  0.00000000E+00  0.00000000E+00  0.00000000E+00  0.00000000E+00  1.00000000E+00
  0.00000000E+00  0.00000000E+00  1.63258918E-01  1.04837700E+01  0.00000000E+00
  0.00000000E+00  0.00000000E+00 -3.85488416E+00  0.00000000E+00  0.00000000E+00
  0.00000000E+00  4.84394199E-01  0.00000000E+00  0.00000000E+00  0.00000000E+00
 -3.34416011E+00 -3.34416011E+00 -3.34416011E+00  0.00000000E+00  0.00000000E+00
  0.00000000E+00
Orthonormal basis                          R   N=         361
  5.56954982E-02  2.63855098E-01  0.00000000E+00  0.00000000E+00  0.00000000E+00
  2.53955906E-01  0.00000000E+00  0.00000000E+00  0.00000000E+00  1.56848914E-01
  0.00000000E+00  0.00000000E+00  0.00000000E+00  1.89060189E-01  1.89060189E-01
  1.89060189E-01  0.00000000E+00  0.00000000E+00  0.00000000E+00  1.00233941E+00
 -4.52071622E-02  0.00000000E+00  0.00000000E+00  0.00000000E+00 -1.87536228E-02
  0.00000000E+00  0.00000000E+00  0.00000000E+00 -1.34696353E-01  0.00000000E+00
  0.00000000E+00  0.00000000E+00 -3.17501755E-02 -3.17501755E-02 -3.17501755E-02
  0.00000000E+00  0.00000000E+00  0.00000000E+00  9.54502723E-02 -2.08582694E-01
  0.00000000E+00  0.00000000E+00  0.00000000E+00  2.08361301E-01  0.00000000E+00
  0.00000000E+00  0.00000000E+00  9.38871786E-01  0.00000000E+00  0.00000000E+00
  0.00000000E+00 -2.65270277E-01 -2.65270277E-01 -2.65270277E-01  0.00000000E+00
  0.00000000E+00  0.00000000E+00  2.44169088E-18  9.01003495E-17  0.00000000E+00
  0.00000000E+00  0.00000000E+00  9.37399409E-18  0.00000000E+00  0.00000000E+00
  0.00000000E+00 -1.75385080E-17  0.00000000E+00  0.00000000E+00  0.00000000E+00
 -1.90202156E-01 -7.55114986E-01  9.45317142E-01  0.00000000E+00  0.00000000E+00
  0.00000000E+00 -4.88836278E-17 -2.78826876E-18  0.00000000E+00  0.00000000E+00
  0.00000000E+00 -5.01049560E-17  0.00000000E+00  0.00000000E+00  0.00000000E+00
  5.93347171E-17  0.00000000E+00  0.00000000E+00  0.00000000E+00  9.81744946E-01
 -6.55592372E-01 -3.26152574E-01  0.00000000E+00  0.00000000E+00  0.00000000E+00
 -1.63272334E-01  3.15644294E-01  0.00000000E+00  0.00000000E+00  0.00000000E+00
  2.12992177E+00  0.00000000E+00  0.00000000E+00  0.00000000E+00 -1.05735116E+00
  0.00000000E+00  0.00000000E+00  0.00000000E+00 -7.92080477E-01 -7.92080477E-01
 -7.92080477E-01  0.00000000E+00  0.00000000E+00  0.00000000E+00  2.09495655E-01
  1.11800404E+01  0.00000000E+00  0.00000000E+00  0.00000000E+00 -4.88036790E+00
  0.00000000E+00  0.00000000E+00  0.00000000E+00  7.87314837E-01  0.00000000E+00
  0.00000000E+00  0.00000000E+00 -3.25411335E+00 -3.25411335E+00 -3.25411335E+00
  0.00000000E+00  0.00000000E+00  0.00000000E+00  0.00000000E+00  0.00000000E+00
  0.00000000E+00  0.00000000E+00  0.00000000E+00  0.00000000E+00  0.00000000E+00
  0.00000000E+00  0.00000000E+00  0.00000000E+00  0.00000000E+00  0.00000000E+00
  0.00000000E+00  0.00000000E+00  0.00000000E+00  0.00000000E+00  1.00000000E+00
  0.00000000E+00  0.00000000E+00  0.00000000E+00  0.00000000E+00  0.00000000E+00
  0.00000000E+00  0.00000000E+00  0.00000000E+00  0.00000000E+00  0.00000000E+00
  0.00000000E+00  0.00000000E+00  0.00000000E+00  0.00000000E+00  0.00000000E+00
  0.00000000E+00  0.00000000E+00  0.00000000E+00  0.00000000E+00  1.00000000E+00
  0.00000000E+00  0.00000000E+00  0.00000000E+00  0.00000000E+00  0.00000000E+00
  0.00000000E+00  0.00000000E+00  0.00000000E+00  0.00000000E+00  0.00000000E+00
  0.00000000E+00  0.00000000E+00  0.00000000E+00  0.00000000E+00  0.00000000E+00
  0.00000000E+00  0.00000000E+00  0.00000000E+00  0.00000000E+00  1.00000000E+00
  0.00000000E+00  0.00000000E+00  0.00000000E+00  0.00000000E+00  4.20771654E-01
  0.00000000E+00  0.00000000E+00  0.00000000E+00  4.65013352E-01  0.00000000E+00
  0.00000000E+00  0.00000000E+00  3.07322736E-01  0.00000000E+00  0.00000000E+00
  0.00000000E+00  0.00000000E+00  0.00000000E+00  0.00000000E+00  0.00000000E+00
  0.00000000E+00  0.00000000E+00  0.00000000E+00 -5.54956389E-01  0.00000000E+00
  0.00000000E+00  0.00000000E+00 -1.31902925E-01  0.00000000E+00  0.00000000E+00
  0.00000000E+00  9.59403597E-01  0.00000000E+00  0.00000000E+00  0.00000000E+00
  0.00000000E+00  0.00000000E+00  0.00000000E+00  0.00000000E+00  0.00000000E+00
  0.00000000E+00  0.00000000E+00 -1.62826209E+00  0.00000000E+00  0.00000000E+00
  0.00000000E+00  1.92123986E+00  0.00000000E+00  0.00000000E+00  0.00000000E+00
 -6.77709878E-01  0.00000000E+00  0.00000000E+00  0.00000000E+00  0.00000000E+00
  0.00000000E+00  0.00000000E+00  0.00000000E+00  0.00000000E+00  0.00000000E+00
  4.20771654E-01  0.00000000E+00  0.00000000E+00  0.00000000E+00  4.65013352E-01
  0.00000000E+00  0.00000000E+00  0.00000000E+00  3.07322736E-01  0.00000000E+00
  0.00000000E+00  0.00000000E+00  0.00000000E+00  0.00000000E+00  0.00000000E+00
  0.00000000E+00  0.00000000E+00  0.00000000E+00  0.00000000E+00 -5.54956389E-01
  0.00000000E+00  0.00000000E+00  0.00000000E+00 -1.31902925E-01  0.00000000E+00
  0.00000000E+00  0.00000000E+00  9.59403597E-01  0.00000000E+00  0.00000000E+00
  0.00000000E+00  0.00000000E+00  0.00000000E+00  0.00000000E+00  0.00000000E+00
  0.00000000E+00  0.00000000E+00  0.00000000E+00 -1.62826209E+00  0.00000000E+00
  0.00000000E+00  0.00000000E+00  1.92123986E+00  0.00000000E+00  0.00000000E+00
  0.00000000E+00 -6.77709878E-01  0.00000000E+00  0.00000000E+00  0.00000000E+00
  0.00000000E+00  0.00000000E+00  0.00000000E+00  0.00000000E+00  0.00000000E+00
  0.00000000E+00  4.20771654E-01  0.00000000E+00  0.00000000E+00  0.00000000E+00
  4.65013352E-01  0.00000000E+00  0.00000000E+00  0.00000000E+00  3.07322736E-01
  0.00000000E+00  0.00000000E+00  0.00000000E+00  0.00000000E+00  0.00000000E+00
  0.00000000E+00  0.00000000E+00  0.00000000E+00  0.00000000E+00  0.00000000E+00
 -5.54956389E-01  0.00000000E+00  0.00000000E+00  0.00000000E+00 -1.31902925E-01
  0.00000000E+00  0.00000000E+00  0.00000000E+00  9.59403597E-01  0.00000000E+00
  0.00000000E+00  0.00000000E+00  0.00000000E+00  0.00000000E+00  0.00000000E+00
  0.00000000E+00  0.00000000E+00  0.00000000E+00  0.00000000E+00 -1.62826209E+00
  0.00000000E+00  0.00000000E+00  0.00000000E+00  1.92123986E+00  0.00000000E+00
  0.00000000E+00  0.00000000E+00 -6.77709878E-01  0.00000000E+00  0.00000000E+00
  0.00000000E+00  0.00000000E+00  0.00000000E+00  0.00000000E+00  0.00000000E+00
  0.00000000E+00
Total SCF Density                          R   N=         190
  1.99654400E+00  1.17930867E-01  6.96588176E-03  0.00000000E+00  0.00000000E+00
  0.00000000E+00  0.00000000E+00  0.00000000E+00  0.00000000E+00  0.00000000E+00
  0.00000000E+00  0.00000000E+00  0.00000000E+00  0.00000000E+00  0.00000000E+00
 -6.55054602E-02 -3.86924391E-03  0.00000000E+00  0.00000000E+00  0.00000000E+00
  2.14919647E-03  0.00000000E+00  0.00000000E+00  0.00000000E+00  0.00000000E+00
  0.00000000E+00  0.00000000E+00  0.00000000E+00  0.00000000E+00  0.00000000E+00
  0.00000000E+00  0.00000000E+00  0.00000000E+00  0.00000000E+00  0.00000000E+00
  0.00000000E+00  0.00000000E+00  0.00000000E+00  0.00000000E+00  0.00000000E+00
  0.00000000E+00  0.00000000E+00  0.00000000E+00  0.00000000E+00  0.00000000E+00
  1.12032032E-02  6.61745232E-04  0.00000000E+00  0.00000000E+00  0.00000000E+00
 -3.67570654E-04  0.00000000E+00  0.00000000E+00  0.00000000E+00  6.28645112E-05
  0.00000000E+00  0.00000000E+00  0.00000000E+00  0.00000000E+00  0.00000000E+00
  0.00000000E+00  0.00000000E+00  0.00000000E+00  0.00000000E+00  0.00000000E+00
  0.00000000E+00  0.00000000E+00  0.00000000E+00  0.00000000E+00  0.00000000E+00
  0.00000000E+00  0.00000000E+00  0.00000000E+00  0.00000000E+00  0.00000000E+00
  0.00000000E+00  0.00000000E+00  0.00000000E+00  0.00000000E+00  0.00000000E+00
  0.00000000E+00  0.00000000E+00  0.00000000E+00  0.00000000E+00  0.00000000E+00
  0.00000000E+00  0.00000000E+00  0.00000000E+00  0.00000000E+00  0.00000000E+00
  0.00000000E+00 -1.41764196E-02 -8.37365695E-04  0.00000000E+00  0.00000000E+00
  0.00000000E+00  4.65120172E-04  0.00000000E+00  0.00000000E+00  0.00000000E+00
 -7.95481140E-05  0.00000000E+00  0.00000000E+00  0.00000000E+00  1.00659376E-04
 -1.41764196E-02 -8.37365695E-04  0.00000000E+00  0.00000000E+00  0.00000000E+00
  4.65120172E-04  0.00000000E+00  0.00000000E+00  0.00000000E+00 -7.95481140E-05
  0.00000000E+00  0.00000000E+00  0.00000000E+00  1.00659376E-04  1.00659376E-04
 -1.41764196E-02 -8.37365695E-04  0.00000000E+00  0.00000000E+00  0.00000000E+00
  4.65120172E-04  0.00000000E+00  0.00000000E+00  0.00000000E+00 -7.95481140E-05
  0.00000000E+00  0.00000000E+00  0.00000000E+00  1.00659376E-04  1.00659376E-04
  1.00659376E-04  2.94663086E-33  1.66790426E-34  0.00000000E+00  0.00000000E+00
  0.00000000E+00 -9.49778813E-35  0.00000000E+00  0.00000000E+00  0.00000000E+00
  1.62157358E-35  0.00000000E+00  0.00000000E+00  0.00000000E+00 -1.89666196E-35
 -2.41788204E-35 -1.79531361E-35  2.30912261E-36  9.26613477E-34  5.50176752E-35
  0.00000000E+00  0.00000000E+00  0.00000000E+00 -3.04045047E-35  0.00000000E+00
  0.00000000E+00  0.00000000E+00  5.28459248E-36  0.00000000E+00  0.00000000E+00
  0.00000000E+00 -6.94960107E-36 -6.44285933E-36 -6.73242604E-36  6.49630311E-52
  1.01670324E-36 -1.18606525E-33 -6.74690438E-35  0.00000000E+00  0.00000000E+00
  0.00000000E+00  3.85123726E-35  0.00000000E+00  0.00000000E+00  0.00000000E+00
 -6.62383852E-36  0.00000000E+00  0.00000000E+00  0.00000000E+00  8.36123879E-36
  8.46982631E-36  8.10786792E-36 -5.56825981E-53 -7.60995508E-52  1.01670324E-36
Grdnt Energy                               R     -7.478419523953754E+00
Grdnt NVar                                 I                0
Grdnt IGetFC                               I                4
Mulliken Charges                           R   N=           1
  1.00000000E+00
ONIOM Charges                              I   N=          16
           1           0           0           0           0           0
           0           0           0           0           0           0
           0           0           0           0
ONIOM Multiplicities                       I   N=          16
           1           0           0           0           0           0
           0           0           0           0           0           0
           0           0           0           0
Atom Layers                                I   N=           1
           1
Atom Modifiers                             I   N=           1
           0
Force Field                                I                0
Atom Modified Types                        C   N=           1
            
Int Atom Modified Types                    I   N=           1
           0
Link Atoms                                 I   N=           1
           0
Atom Modified MM Charges                   R   N=           1
  0.00000000E+00
Link Distances                             R   N=           4
  0.00000000E+00  0.00000000E+00  0.00000000E+00  0.00000000E+00
Cartesian Gradient                         R   N=           3
  2.49469614E-17  1.00576765E-17  3.76840033E-17
Cartesian Force Constants                  R   N=           6
 -6.24501510E-17  1.36243232E-18 -3.64292989E-17  3.53312301E-19  4.70367634E-19
 -5.37765336E-17
Nonadiabatic coupling                      R   N=           3
  0.00000000E+00  0.00000000E+00  0.00000000E+00
Dipole Moment                              R   N=           3
  0.00000000E+00  0.00000000E+00  0.00000000E+00
Dipole Derivatives                         R   N=           9
  1.00000000E+00 -1.34437198E-19  1.35636755E-19 -1.37764580E-19  1.00000000E+00
 -1.36109648E-19  1.42930356E-19 -1.31212560E-19  1.00000000E+00
Polarizability                             R   N=           6
  8.88792580E-02  5.68679523E-13  8.88792579E-02 -8.75949102E-14  1.89652935E-13
  8.88792579E-02
Quadrupole Moment                          R   N=           6
  0.00000000E+00  0.00000000E+00  0.00000000E+00 -6.99035650E-34 -2.28220233E-34
  2.83677041E-34
QEq coupling tensors                       R   N=           6
 -2.36847579E-15  0.00000000E+00 -2.36847579E-15  0.00000000E+00  0.00000000E+00
 -2.36847579E-15
ClPar MaxAn                                I              200
ClPar NIntPar                              I                4
ClPar NRealPar                             I               16
ClPar NBits                                I               30
ClPar LenBitVec                            I                1
ClPar Read BitMap                          I   N=         200
           0           0           0           0           0           0
           0           0           0           0           0           0
           0           0           0           0           0           0
           0           0           0           0           0           0
           0           0           0           0           0           0
           0           0           0           0           0           0
           0           0           0           0           0           0
           0           0           0           0           0           0
           0           0           0           0           0           0
           0           0           0           0           0           0
           0           0           0           0           0           0
           0           0           0           0           0           0
           0           0           0           0           0           0
           0           0           0           0           0           0
           0           0           0           0           0           0
           0           0           0           0           0           0
           0           0           0           0           0           0
           0           0           0           0           0           0
           0           0           0           0           0           0
           0           0           0           0           0           0
           0           0           0           0           0           0
           0           0           0           0           0           0
           0           0           0           0           0           0
           0           0           0           0           0           0
           0           0           0           0           0           0
           0           0           0           0           0           0
           0           0           0           0           0           0
           0           0           0           0           0           0
           0           0           0           0           0           0
           0           0           0           0           0           0