Acetone                                                                 
Freq      RB3LYP                                                      6-31G(d)            
Number of atoms                            I               10
Info1-9                                    I   N=           9
          19          19        1002           0           0         100
           6          18        -502
Full Title                                 C   N=           1
Acetone     
Route                                      C   N=           3
# opt freq B3LYP/6-31G(d) em=gd3bj  
Charge                                     I                0
Multiplicity                               I                1
Number of electrons                        I               32
Number of alpha electrons                  I               16
Number of beta electrons                   I               16
Number of basis functions                  I               72
Number of independent functions            I               72
Number of point charges in /Mol/           I                0
Number of translation vectors              I                0
Atomic numbers                             I   N=          10
           6           6           8           6           1           1
           1           1           1           1
Nuclear charges                            R   N=          10
  6.00000000E+00  6.00000000E+00  8.00000000E+00  6.00000000E+00  1.00000000E+00
  1.00000000E+00  1.00000000E+00  1.00000000E+00  1.00000000E+00  1.00000000E+00
Current cartesian coordinates              R   N=          30
  2.43917908E+00 -1.16239791E+00  6.82400982E-06  2.27512404E-17  3.51688567E-01
 -5.14352981E-05 -3.44892372E-08  2.64868591E+00  1.33293122E-05 -2.43917905E+00
 -1.16239796E+00  6.93493945E-06  4.05800561E+00  1.15891629E-01  3.28669903E-05
  2.52523128E+00 -2.39566333E+00 -1.66451526E+00  2.52516835E+00 -2.39564997E+00
  1.66454257E+00 -2.52516557E+00 -2.39565528E+00  1.66453890E+00 -4.05800559E+00
  1.15891573E-01  3.92854381E-05 -2.52523396E+00 -2.39565810E+00 -1.66451894E+00
Number of symbols in /Mol/                 I                0
Force Field                                I                0
Atom Types                                 C   N=          10
                                                            
                                                            
Int Atom Types                             I   N=          10
           0           0           0           0           0           0
           0           0           0           0
MM charges                                 R   N=          10
  0.00000000E+00  0.00000000E+00  0.00000000E+00  0.00000000E+00  0.00000000E+00
  0.00000000E+00  0.00000000E+00  0.00000000E+00  0.00000000E+00  0.00000000E+00
Integer atomic weights                     I   N=          10
          12          12          16          12           1           1
           1           1           1           1
Real atomic weights                        R   N=          10
  1.20000000E+01  1.20000000E+01  1.59949146E+01  1.20000000E+01  1.00782504E+00
  1.00782504E+00  1.00782504E+00  1.00782504E+00  1.00782504E+00  1.00782504E+00
Atom fragment info                         I   N=          10
           0           0           0           0           0           0
           0           0           0           0
Atom residue num                           I   N=          10
           0           0           0           0           0           0
           0           0           0           0
Nuclear spins                              I   N=          10
           0           0           0           0           1           1
           1           1           1           1
Nuclear ZEff                               R   N=          10
 -3.60000000E+00 -3.60000000E+00 -5.60000000E+00 -3.60000000E+00 -1.00000000E+00
 -1.00000000E+00 -1.00000000E+00 -1.00000000E+00 -1.00000000E+00 -1.00000000E+00
Nuclear ZNuc                               R   N=          10
  6.00000000E+00  6.00000000E+00  8.00000000E+00  6.00000000E+00  1.00000000E+00
  1.00000000E+00  1.00000000E+00  1.00000000E+00  1.00000000E+00  1.00000000E+00
Nuclear QMom                               R   N=          10
  0.00000000E+00  0.00000000E+00  0.00000000E+00  0.00000000E+00  0.00000000E+00
  0.00000000E+00  0.00000000E+00  0.00000000E+00  0.00000000E+00  0.00000000E+00
Nuclear GFac                               R   N=          10
  0.00000000E+00  0.00000000E+00  0.00000000E+00  0.00000000E+00  2.79284600E+00
  2.79284600E+00  2.79284600E+00  2.79284600E+00  2.79284600E+00  2.79284600E+00
MicOpt                                     I   N=          10
          -1          -1          -1          -1          -1          -1
          -1          -1          -1          -1
Number of residues                         I                0
Number of secondary structures             I                0
Redundant internal dimensions              I   N=           4
          36           9          15          12
Redundant internal coordinate indices      I   N=         144
           1           2           0           0           1           5
           0           0           1           6           0           0
           1           7           0           0           2           3
           0           0           2           4           0           0
           4           8           0           0           4           9
           0           0           4          10           0           0
           2           1           5           0           2           1
           6           0           2           1           7           0
           5           1           6           0           5           1
           7           0           6           1           7           0
           1           2           3           0           1           2
           4           0           3           2           4           0
           2           4           8           0           2           4
           9           0           2           4          10           0
           8           4           9           0           8           4
          10           0           9           4          10           0
           5           1           2           3           5           1
           2           4           6           1           2           3
           6           1           2           4           7           1
           2           3           7           1           2           4
           1           2           4           8           1           2
           4           9           1           2           4          10
           3           2           4           8           3           2
           4           9           3           2           4          10
Redundant internal coordinates             R   N=          36
  2.87089750E+00  2.06267387E+00  2.07339874E+00  2.07339916E+00  2.29699735E+00
  2.87089750E+00  2.07339913E+00  2.06267387E+00  2.07339876E+00  1.91767378E+00
  1.92723602E+00  1.92723957E+00  1.91351859E+00  1.91351805E+00  1.86395988E+00
  2.12632359E+00  2.03053813E+00  2.12632358E+00  1.92723984E+00  1.91767376E+00
  1.92723575E+00  1.91351822E+00  1.86395989E+00  1.91351843E+00 -3.96927106E-05
 -3.14155383E+00 -2.11289656E+00  1.02877461E+00  2.11281879E+00 -1.02869534E+00
  1.02869175E+00  3.14155062E+00 -1.02877821E+00 -2.11282238E+00  3.64790530E-05
  2.11289296E+00
ZRed-IntVec                                I   N=          36
           0           0           0           0           0           0
           0           0           0           0           0           0
           0           0           0           0           0           0
           0           0           0           0           0           0
           0           0           0           0           0           0
           0           0           0           0           0           0
ZRed-FPVec                                 R   N=          36
  0.00000000E+00  0.00000000E+00  0.00000000E+00  0.00000000E+00  0.00000000E+00
  0.00000000E+00  0.00000000E+00  0.00000000E+00  0.00000000E+00  0.00000000E+00
  0.00000000E+00  0.00000000E+00  0.00000000E+00  0.00000000E+00  0.00000000E+00
  0.00000000E+00  0.00000000E+00  0.00000000E+00  0.00000000E+00  0.00000000E+00
  0.00000000E+00  0.00000000E+00  0.00000000E+00  0.00000000E+00  0.00000000E+00
  0.00000000E+00  0.00000000E+00  0.00000000E+00  0.00000000E+00  0.00000000E+00
  0.00000000E+00  0.00000000E+00  0.00000000E+00  0.00000000E+00  0.00000000E+00
  0.00000000E+00
ZRed-Constraint1                           R   N=          36
  2.87089750E+00  2.06267387E+00  2.07339874E+00  2.07339916E+00  2.29699735E+00
  2.87089750E+00  2.07339913E+00  2.06267387E+00  2.07339876E+00  1.91767378E+00
  1.92723602E+00  1.92723957E+00  1.91351859E+00  1.91351805E+00  1.86395988E+00
  2.12632359E+00  2.03053813E+00  2.12632358E+00  1.92723984E+00  1.91767376E+00
  1.92723575E+00  1.91351822E+00  1.86395989E+00  1.91351843E+00 -3.96927050E-05
 -3.14155383E+00 -2.11289656E+00  1.02877461E+00  2.11281879E+00 -1.02869534E+00
  1.02869175E+00  3.14155062E+00 -1.02877821E+00 -2.11282238E+00  3.64790500E-05
  2.11289296E+00
ZRed-Constraint2                           R   N=          36
  2.84359522E+00  2.06645782E+00  2.06501171E+00  2.06501180E+00  2.32448155E+00
  2.84359587E+00  2.06501197E+00  2.06645642E+00  2.06501273E+00  1.91483334E+00
  1.91258290E+00  1.91258485E+00  1.90010722E+00  1.90011172E+00  1.92351480E+00
  2.12295626E+00  2.03727262E+00  2.12295643E+00  1.91258390E+00  1.91483287E+00
  1.91258346E+00  1.90010965E+00  1.92351568E+00  1.90010926E+00 -5.10751293E-06
  3.14158505E+00 -2.08526815E+00  1.05632200E+00  2.08526465E+00 -1.05633051E+00
  1.05632698E+00 -3.14159198E+00 -1.05632637E+00 -2.08526818E+00 -1.82397761E-06
  2.08526378E+00
SymInf integers                            I   N=          26
           1           1           1           1           1           0
           0           0           0           0           0           0
           0           0           0           0           0           0
           0           0           0           0           0           0
           0           0
RotTr to input orientation                 R   N=          12
 -9.71993357E-01  2.27313858E-01 -5.96432988E-02  1.17496646E-01  2.50259215E-01
 -9.61022822E-01 -2.03527520E-01 -9.41115686E-01 -2.69958910E-01  1.01933397E-01
  2.17115441E-01 -8.33710187E-01
Number of contracted shells                I               28
Number of primitive shells                 I               68
Pure/Cartesian d shells                    I                1
Pure/Cartesian f shells                    I                0
Highest angular momentum                   I                2
Largest degree of contraction              I                6
Shell types                                I   N=          28
           0          -1          -1           2           0          -1
          -1           2           0          -1          -1           2
           0          -1          -1           2           0           0
           0           0           0           0           0           0
           0           0           0           0
Number of primitives per shell             I   N=          28
           6           3           1           1           6           3
           1           1           6           3           1           1
           6           3           1           1           3           1
           3           1           3           1           3           1
           3           1           3           1
Shell to atom map                          I   N=          28
           1           1           1           1           2           2
           2           2           3           3           3           3
           4           4           4           4           5           5
           6           6           7           7           8           8
           9           9          10          10
Primitive exponents                        R   N=          68
  3.04752488E+03  4.57369518E+02  1.03948685E+02  2.92101553E+01  9.28666296E+00
  3.16392696E+00  7.86827235E+00  1.88128854E+00  5.44249258E-01  1.68714478E-01
  8.00000000E-01  3.04752488E+03  4.57369518E+02  1.03948685E+02  2.92101553E+01
  9.28666296E+00  3.16392696E+00  7.86827235E+00  1.88128854E+00  5.44249258E-01
  1.68714478E-01  8.00000000E-01  5.48467166E+03  8.25234946E+02  1.88046958E+02
  5.29645000E+01  1.68975704E+01  5.79963534E+00  1.55396162E+01  3.59993359E+00
  1.01376175E+00  2.70005823E-01  8.00000000E-01  3.04752488E+03  4.57369518E+02
  1.03948685E+02  2.92101553E+01  9.28666296E+00  3.16392696E+00  7.86827235E+00
  1.88128854E+00  5.44249258E-01  1.68714478E-01  8.00000000E-01  1.87311370E+01
  2.82539436E+00  6.40121692E-01  1.61277759E-01  1.87311370E+01  2.82539436E+00
  6.40121692E-01  1.61277759E-01  1.87311370E+01  2.82539436E+00  6.40121692E-01
  1.61277759E-01  1.87311370E+01  2.82539436E+00  6.40121692E-01  1.61277759E-01
  1.87311370E+01  2.82539436E+00  6.40121692E-01  1.61277759E-01  1.87311370E+01
  2.82539436E+00  6.40121692E-01  1.61277759E-01
Contraction coefficients                   R   N=          68
  1.83473713E-03  1.40373228E-02  6.88426223E-02  2.32184443E-01  4.67941348E-01
  3.62311985E-01 -1.19332420E-01 -1.60854152E-01  1.14345644E+00  1.00000000E+00
  1.00000000E+00  1.83473713E-03  1.40373228E-02  6.88426223E-02  2.32184443E-01
  4.67941348E-01  3.62311985E-01 -1.19332420E-01 -1.60854152E-01  1.14345644E+00
  1.00000000E+00  1.00000000E+00  1.83107443E-03  1.39501722E-02  6.84450781E-02
  2.32714336E-01  4.70192898E-01  3.58520853E-01 -1.10777550E-01 -1.48026263E-01
  1.13076702E+00  1.00000000E+00  1.00000000E+00  1.83473713E-03  1.40373228E-02
  6.88426223E-02  2.32184443E-01  4.67941348E-01  3.62311985E-01 -1.19332420E-01
 -1.60854152E-01  1.14345644E+00  1.00000000E+00  1.00000000E+00  3.34946043E-02
  2.34726953E-01  8.13757326E-01  1.00000000E+00  3.34946043E-02  2.34726953E-01
  8.13757326E-01  1.00000000E+00  3.34946043E-02  2.34726953E-01  8.13757326E-01
  1.00000000E+00  3.34946043E-02  2.34726953E-01  8.13757326E-01  1.00000000E+00
  3.34946043E-02  2.34726953E-01  8.13757326E-01  1.00000000E+00  3.34946043E-02
  2.34726953E-01  8.13757326E-01  1.00000000E+00
P(S=P) Contraction coefficients            R   N=          68
  0.00000000E+00  0.00000000E+00  0.00000000E+00  0.00000000E+00  0.00000000E+00
  0.00000000E+00  6.89990666E-02  3.16423961E-01  7.44308291E-01  1.00000000E+00
  0.00000000E+00  0.00000000E+00  0.00000000E+00  0.00000000E+00  0.00000000E+00
  0.00000000E+00  0.00000000E+00  6.89990666E-02  3.16423961E-01  7.44308291E-01
  1.00000000E+00  0.00000000E+00  0.00000000E+00  0.00000000E+00  0.00000000E+00
  0.00000000E+00  0.00000000E+00  0.00000000E+00  7.08742682E-02  3.39752839E-01
  7.27158577E-01  1.00000000E+00  0.00000000E+00  0.00000000E+00  0.00000000E+00
  0.00000000E+00  0.00000000E+00  0.00000000E+00  0.00000000E+00  6.89990666E-02
  3.16423961E-01  7.44308291E-01  1.00000000E+00  0.00000000E+00  0.00000000E+00
  0.00000000E+00  0.00000000E+00  0.00000000E+00  0.00000000E+00  0.00000000E+00
  0.00000000E+00  0.00000000E+00  0.00000000E+00  0.00000000E+00  0.00000000E+00
  0.00000000E+00  0.00000000E+00  0.00000000E+00  0.00000000E+00  0.00000000E+00
  0.00000000E+00  0.00000000E+00  0.00000000E+00  0.00000000E+00  0.00000000E+00
  0.00000000E+00  0.00000000E+00  0.00000000E+00
Coordinates of each shell                  R   N=          84
  2.43917908E+00 -1.16239791E+00  6.82400982E-06  2.43917908E+00 -1.16239791E+00
  6.82400982E-06  2.43917908E+00 -1.16239791E+00  6.82400982E-06  2.43917908E+00
 -1.16239791E+00  6.82400982E-06  8.87345255E-18  3.51688567E-01 -5.14352981E-05
  8.87345255E-18  3.51688567E-01 -5.14352981E-05  8.87345255E-18  3.51688567E-01
 -5.14352981E-05  8.87345255E-18  3.51688567E-01 -5.14352981E-05 -3.44892373E-08
  2.64868591E+00  1.33293122E-05 -3.44892373E-08  2.64868591E+00  1.33293122E-05
 -3.44892373E-08  2.64868591E+00  1.33293122E-05 -3.44892373E-08  2.64868591E+00
  1.33293122E-05 -2.43917905E+00 -1.16239796E+00  6.93493945E-06 -2.43917905E+00
 -1.16239796E+00  6.93493945E-06 -2.43917905E+00 -1.16239796E+00  6.93493945E-06
 -2.43917905E+00 -1.16239796E+00  6.93493945E-06  4.05800561E+00  1.15891629E-01
  3.28669903E-05  4.05800561E+00  1.15891629E-01  3.28669903E-05  2.52523128E+00
 -2.39566333E+00 -1.66451526E+00  2.52523128E+00 -2.39566333E+00 -1.66451526E+00
  2.52516835E+00 -2.39564997E+00  1.66454257E+00  2.52516835E+00 -2.39564997E+00
  1.66454257E+00 -2.52516557E+00 -2.39565528E+00  1.66453890E+00 -2.52516557E+00
 -2.39565528E+00  1.66453890E+00 -4.05800559E+00  1.15891573E-01  3.92854381E-05
 -4.05800559E+00  1.15891573E-01  3.92854381E-05 -2.52523396E+00 -2.39565810E+00
 -1.66451894E+00 -2.52523396E+00 -2.39565810E+00 -1.66451894E+00
Num ILSW                                   I              100
ILSW                                       I   N=         100
           0           1           0           0           2           0
           0           0           0           0         402          -1
           5           0           0           0           2           0
           0           0           1           0           1           0
           1           0           0           0           0           0
           0           0      100000           0          -1           0
           0           0           0           0           0           0
           0           0           0           1           0           0
           0 -2000000000           1           0           0           0
           0           0         141          52           0           0
           0           0           5           0           0           0
           0           0           0           0           0           1
           0           0           0           0           0           0
           0           0           0           0           0           0
           0           0           0           0           0           0
           0           0           0           0           0           0
           0           0           0           0
Num RLSW                                   I               52
RLSW                                       R   N=          52
  8.00000000E-01  7.20000000E-01  1.00000000E+00  8.10000000E-01  2.00000000E-01
  0.00000000E+00  0.00000000E+00  1.00000000E+00  0.00000000E+00  0.00000000E+00
  0.00000000E+00  0.00000000E+00  1.00000000E+00  0.00000000E+00  0.00000000E+00
  0.00000000E+00  0.00000000E+00  1.00000000E+00  0.00000000E+00  0.00000000E+00
  0.00000000E+00  0.00000000E+00  1.00000000E+00  0.00000000E+00  0.00000000E+00
  0.00000000E+00  0.00000000E+00  1.00000000E+00  0.00000000E+00  0.00000000E+00
  0.00000000E+00  0.00000000E+00  1.00000000E+00  0.00000000E+00  0.00000000E+00
  0.00000000E+00  0.00000000E+00  0.00000000E+00  1.00000000E+00  1.00000000E+00
  0.00000000E+00  1.00000000E+00  0.00000000E+00  0.00000000E+00  0.00000000E+00
  0.00000000E+00  0.00000000E+00  0.00000000E+00  0.00000000E+00  0.00000000E+00
  0.00000000E+00  0.00000000E+00
MxBond                                     I                4
NBond                                      I   N=          10
           4           3           1           4           1           1
           1           1           1           1
IBond                                      I   N=          40
           2           5           6           7           1           3
           4           0           2           0           0           0
           2           8           9          10           1           0
           0           0           1           0           0           0
           1           0           0           0           4           0
           0           0           4           0           0           0
           4           0           0           0
RBond                                      R   N=          40
  1.00000000E+00  1.00000000E+00  1.00000000E+00  1.00000000E+00  1.00000000E+00
  2.00000000E+00  1.00000000E+00  0.00000000E+00  2.00000000E+00  0.00000000E+00
  0.00000000E+00  0.00000000E+00  1.00000000E+00  1.00000000E+00  1.00000000E+00
  1.00000000E+00  1.00000000E+00  0.00000000E+00  0.00000000E+00  0.00000000E+00
  1.00000000E+00  0.00000000E+00  0.00000000E+00  0.00000000E+00  1.00000000E+00
  0.00000000E+00  0.00000000E+00  0.00000000E+00  1.00000000E+00  0.00000000E+00
  0.00000000E+00  0.00000000E+00  1.00000000E+00  0.00000000E+00  0.00000000E+00
  0.00000000E+00  1.00000000E+00  0.00000000E+00  0.00000000E+00  0.00000000E+00
Virial Ratio                               R      2.009475084594360E+00
SCF Energy                                 R     -1.931655712251408E+02
Total Energy                               R     -1.931655712251408E+02
RMS Force                                  R      2.362571509048687E-05
RMS Density                                R      1.605870583417182E-09
NImag                                      I                0
Job Status                                 I                1
Nuclear derivative order                   I                2
External E-field                           R   N=          35
  0.00000000E+00  0.00000000E+00  0.00000000E+00  0.00000000E+00  0.00000000E+00
  0.00000000E+00  0.00000000E+00  0.00000000E+00  0.00000000E+00  0.00000000E+00
  0.00000000E+00  0.00000000E+00  0.00000000E+00  0.00000000E+00  0.00000000E+00
  0.00000000E+00  0.00000000E+00  0.00000000E+00  0.00000000E+00  0.00000000E+00
  0.00000000E+00  0.00000000E+00  0.00000000E+00  0.00000000E+00  0.00000000E+00
  0.00000000E+00  0.00000000E+00  0.00000000E+00  0.00000000E+00  0.00000000E+00
  0.00000000E+00  0.00000000E+00  0.00000000E+00  0.00000000E+00  0.00000000E+00
IOpCl                                      I                0
IROHF                                      I                0
Alpha Orbital Energies                     R   N=          72
 -1.91356954E+01 -1.02773748E+01 -1.01906224E+01 -1.01906113E+01 -1.03562093E+00
 -7.67536653E-01 -7.09778081E-01 -5.30731352E-01 -4.58217607E-01 -4.57583389E-01
 -4.48011871E-01 -4.03984060E-01 -3.93076790E-01 -3.78551904E-01 -3.46936715E-01
 -2.44132611E-01 -1.10198774E-02  8.76703053E-02  1.37468794E-01  1.48481652E-01
  1.60825821E-01  1.71106365E-01  1.80611874E-01  1.98844993E-01  2.90513502E-01
  3.23429048E-01  4.92883384E-01  5.36955736E-01  5.64455729E-01  5.73820479E-01
  5.75794842E-01  6.92114756E-01  7.00885220E-01  7.07433552E-01  7.70700569E-01
  7.85292741E-01  8.33121738E-01  8.74707739E-01  8.85732196E-01  8.98779758E-01
  9.20488106E-01  9.38182004E-01  9.60603895E-01  1.01844158E+00  1.10024251E+00
  1.17849011E+00  1.40490583E+00  1.42344520E+00  1.42721519E+00  1.56291227E+00
  1.76522757E+00  1.77886865E+00  1.79055318E+00  1.80480155E+00  1.90947689E+00
  1.93507359E+00  2.02832654E+00  2.07442775E+00  2.11827547E+00  2.19867341E+00
  2.20728814E+00  2.36125795E+00  2.40911272E+00  2.48460072E+00  2.59777600E+00
  2.69328833E+00  2.95650825E+00  2.97806285E+00  3.94638379E+00  4.08985786E+00
  4.27065732E+00  4.44370482E+00
Alpha MO coefficients                      R   N=        5184
  7.95011840E-06  8.57324169E-05 -1.16369545E-05 -9.79976693E-06  1.42522133E-09
 -7.06963811E-04  7.47195995E-04  4.36997432E-04  2.15845042E-08 -4.09151252E-05
  1.44449828E-05 -5.09128269E-06  5.30800068E-06 -3.81627135E-09 -3.55506855E-09
 -1.16787725E-05  4.01466695E-04 -3.11554273E-13 -3.54090281E-05 -9.80844484E-10
 -2.72955671E-03  6.60096077E-11 -4.03920102E-03 -7.97809903E-08 -3.29348544E-05
 -9.20625216E-04 -5.28082800E-05  1.61888632E-11  2.00178085E-11 -3.34545557E-08
  9.92719776E-01  2.55482785E-02  1.95199885E-11 -1.14112915E-03 -3.44468222E-08
  1.47659435E-02  2.45211203E-11 -1.87307499E-03 -6.40251550E-08 -8.22202089E-03
 -7.64040185E-03 -8.24872111E-03 -9.38779297E-12 -1.83674679E-11  2.06868537E-08
  7.95011812E-06  8.57324197E-05  1.16369530E-05 -9.79976679E-06  1.24605586E-09
 -7.06963782E-04 -7.47195992E-04  4.36997416E-04  2.23880048E-08 -4.09151308E-05
  1.44449796E-05 -5.09128220E-06 -5.30800279E-06  3.69774114E-09 -3.32125485E-09
  1.42917758E-05 -3.60288713E-04  2.79671669E-05  1.11924705E-04  2.79586733E-05
  1.11952315E-04  2.79588244E-05  1.11952540E-04  1.42917807E-05 -3.60288717E-04
  2.79670117E-05  1.11924475E-04  1.22083055E-03 -9.89713900E-05  1.82768632E-04
 -1.99764281E-04 -2.31394582E-09  3.73015712E-03 -2.00133710E-03  5.06814993E-04
  2.77759652E-08 -3.00336011E-04 -3.44332884E-04 -5.49373801E-05  2.23237234E-04
 -1.22139609E-08  9.44819965E-09  9.92928243E-01  4.87282082E-02 -6.34663766E-12
  7.72314259E-04  2.95960928E-08 -1.02733537E-02 -8.45449858E-11  4.76964408E-03
 -1.22351672E-07 -9.30487557E-03 -8.19109425E-03 -9.45653437E-03 -2.42705270E-11
  1.40735346E-10  3.28656908E-08 -9.92534097E-05  5.76503123E-04 -1.58161338E-12
  3.91939575E-05 -8.75567326E-09 -3.97641459E-03 -2.50222352E-11  2.24014798E-03
  1.42362191E-07  3.75352427E-04 -2.56989453E-04  5.56970446E-04  8.08710810E-12
  4.63764701E-11 -4.61344855E-08  1.22083052E-03 -9.89713882E-05 -1.82768623E-04
 -1.99764285E-04 -2.86496405E-09  3.73015706E-03  2.00133706E-03  5.06815034E-04
  3.10577964E-08 -3.00335996E-04 -3.44332890E-04 -5.49373796E-05 -2.23237232E-04
  1.23780806E-08  9.04568149E-09 -7.29282191E-05  1.81368171E-04 -1.68068838E-04
  1.55332951E-04 -1.68070271E-04  1.55240319E-04 -1.68070148E-04  1.55236807E-04
 -7.29282216E-05  1.81368160E-04 -1.68068956E-04  1.55336479E-04  7.02150926E-01
  3.58518626E-02 -1.66034334E-04 -1.65587248E-04 -7.37623772E-09 -1.40380943E-02
  1.47783859E-03 -4.97584747E-04  7.40556055E-08 -6.47889719E-03 -6.50940101E-03
 -6.38205255E-03  9.21148753E-05 -2.95839532E-09  5.48709094E-09 -5.90959156E-08
 -1.06627863E-08 -2.67677296E-04  1.01929478E-09  1.09832454E-10  1.57029201E-07
  4.72284492E-03 -3.62626019E-08  2.63728795E-10 -1.41995399E-08 -9.04482291E-09
 -5.43182264E-09  2.23965165E-04 -3.11464156E-09 -1.16054846E-10 -7.61864374E-10
 -4.43637041E-09  2.93905426E-05  8.33672387E-10 -7.45511635E-11  4.97804425E-09
 -7.22248180E-04 -4.49383959E-09  2.49145600E-10 -7.25734509E-10  1.40990260E-09
 -6.13854269E-09  9.98168670E-05  1.65053879E-08 -6.32969652E-11 -7.02110259E-01
 -3.58498154E-02 -1.66034552E-04  1.65585101E-04  8.62758818E-09  1.40374390E-02
  1.47782172E-03  4.97561408E-04 -7.92399991E-08  6.47851588E-03  6.50902053E-03
  6.38167111E-03  9.21131019E-05 -2.76461141E-09 -5.51450548E-09  1.36787159E-05
  1.63775982E-03  5.61870159E-05  2.17447382E-03  5.61834503E-05  2.17443272E-03
 -5.61886918E-05 -2.17432755E-03 -1.36812867E-05 -1.63763877E-03 -5.61919233E-05
 -2.17437448E-03  7.02006137E-01  3.53402786E-02  3.70312400E-06 -3.69410942E-05
  1.49545969E-09 -1.13131183E-02  2.91235953E-04 -4.04002161E-04 -9.81484821E-09
 -6.58243421E-03 -6.56804445E-03 -6.58447024E-03  3.06359407E-05 -5.35895254E-10
 -1.67186985E-09 -2.03969783E-03 -3.68122751E-04  7.74858714E-09  3.51928809E-05
 -1.18039978E-08  5.42171278E-03 -1.36779792E-07 -1.25335847E-03  8.10065889E-08
 -4.90012124E-04 -3.12349206E-04 -1.87555398E-04 -6.48676349E-09 -4.30960742E-11
  6.60482567E-09 -2.63075404E-05 -1.53206607E-04 -8.52341155E-10  2.88137478E-05
 -1.87303681E-10  1.71512459E-04  2.09192642E-08 -1.54836595E-04 -1.34075480E-08
 -2.49371101E-05  4.85818893E-05 -2.11994953E-04 -2.89005898E-09  6.31002651E-11
  8.85301818E-09  7.02046810E-01  3.53423553E-02 -3.69350268E-06 -3.69506823E-05
  1.16193352E-09 -1.13139315E-02 -2.91321570E-04 -4.04031025E-04 -1.04393196E-08
 -6.58280951E-03 -6.56842152E-03 -6.58483992E-03 -3.06412782E-05  6.82717064E-10
 -1.87840568E-09 -4.43375673E-05  2.08981286E-03 -8.76853744E-05  1.76522173E-03
 -8.76828981E-05  1.76523257E-03 -8.76800450E-05  1.76535980E-03 -4.43367702E-05
  2.08990773E-03 -8.76817260E-05  1.76534642E-03 -1.84616221E-02  3.39248928E-02
 -1.87960854E-02  1.92182575E-02 -1.89423670E-07  5.73901647E-03  9.24283776E-03
  9.56695390E-03  5.51508541E-07  3.13998369E-03  3.35411399E-03 -1.20115452E-03
 -4.80484516E-03  4.37650067E-08 -1.06826912E-07 -1.20499729E-01  2.32910021E-01
 -2.78989328E-09  1.79955322E-01  5.60384754E-06  8.44350500E-02  6.40264740E-10
 -4.37426942E-02 -6.70532546E-07 -1.91195547E-02  2.21585871E-02 -1.99037441E-02
 -7.13192798E-10  4.91849039E-10  1.29418274E-06 -1.93411839E-01  4.18791482E-01
  2.40132355E-09 -1.61773140E-01 -4.40458192E-06  4.03138805E-01  8.12340155E-10
 -5.77145128E-02 -1.74047070E-06 -1.16370967E-02  9.88096863E-03 -6.94210603E-03
 -3.72846221E-10  1.10983338E-09  6.10083694E-07 -1.84616223E-02  3.39248931E-02
  1.87960851E-02  1.92182580E-02 -1.92178417E-07  5.73901683E-03 -9.24283769E-03
  9.56695366E-03  5.42244567E-07  3.13998351E-03  3.35411415E-03 -1.20115450E-03
  4.80484515E-03 -4.63307802E-08 -1.02819732E-07  8.16589948E-03 -2.58290715E-03
  6.16762480E-03  1.22306910E-03  6.16759225E-03  1.22330893E-03  6.16759030E-03
  1.22332374E-03  8.16589976E-03 -2.58290694E-03  6.16762683E-03  1.22305421E-03
 -1.24842784E-01  2.38447871E-01 -4.80021461E-02  1.82928966E-03 -7.50085350E-07
  2.06692481E-01 -8.49295366E-03 -5.50522816E-03 -2.31146279E-07  2.56336545E-03
 -1.63223093E-03 -3.77394353E-05 -2.28846626E-04  5.46718750E-08 -5.03890998E-08
 -8.58739728E-02  1.73056923E-01  3.27881726E-09 -1.82599515E-01  1.21825116E-06
  1.23671033E-01  5.42024644E-10 -4.35211540E-02  1.11325917E-07  1.35259379E-02
 -1.21164695E-02 -6.14633275E-03  2.79523742E-10  5.62196967E-10 -8.09420452E-07
  6.49065652E-02 -1.48181154E-01 -5.01793272E-11  1.02997161E-03  1.55802699E-06
 -1.48260566E-01  1.70236767E-10 -9.55900337E-03  1.55440958E-07  1.23638066E-03