EC_B3LYP_6-31ppgd,p_pcm_Acetone                                         
Freq      RB3LYP                                                      6-31++G(d,p)        
Number of atoms                            I               10
Info1-9                                    I   N=           9
          19          19        1002           0           0         100
           6          18        -502
Full Title                                 C   N=           3
EC_B3LYP_6-31ppgd,p_pcm_Acetone     
Route                                      C   N=           6
# opt freq B3LYP/6-31++g(d,p) em=gd3bj scrf=(pcm,solvent=Ace
tone)       
Charge                                     I                0
Multiplicity                               I                1
Number of electrons                        I               46
Number of alpha electrons                  I               23
Number of beta electrons                   I               23
Number of basis functions                  I              138
Number of independent functions            I              138
Number of point charges in /Mol/           I                0
Number of translation vectors              I                0
Atomic numbers                             I   N=          10
           6           6           8           6           8           8
           1           1           1           1
Nuclear charges                            R   N=          10
  6.00000000E+00  6.00000000E+00  8.00000000E+00  6.00000000E+00  8.00000000E+00
  8.00000000E+00  1.00000000E+00  1.00000000E+00  1.00000000E+00  1.00000000E+00
Current cartesian coordinates              R   N=          30
 -2.47916262E+00 -1.43054615E+00  2.11626540E-01 -2.47918841E+00  1.43053092E+00
 -2.11563491E-01  1.51800939E-01  2.09536268E+00  1.90057699E-01  1.59093864E+00
  2.12351468E-05 -1.95526082E-04  3.87425443E+00  2.58124375E-06  1.07242302E-04
  1.51817162E-01 -2.09536479E+00 -1.90093059E-01 -3.62430399E+00 -2.46958272E+00
 -1.14549838E+00 -2.98490462E+00 -1.96155893E+00  2.14072544E+00 -3.62428469E+00
  2.46953275E+00  1.14562644E+00 -2.98501260E+00  1.96156908E+00 -2.14063370E+00
Number of symbols in /Mol/                 I                0
Force Field                                I                0
Atom Types                                 C   N=          10
                                                            
                                                            
Int Atom Types                             I   N=          10
           0           0           0           0           0           0
           0           0           0           0
MM charges                                 R   N=          10
  0.00000000E+00  0.00000000E+00  0.00000000E+00  0.00000000E+00  0.00000000E+00
  0.00000000E+00  0.00000000E+00  0.00000000E+00  0.00000000E+00  0.00000000E+00
Integer atomic weights                     I   N=          10
          12          12          16          12          16          16
           1           1           1           1
Real atomic weights                        R   N=          10
  1.20000000E+01  1.20000000E+01  1.59949146E+01  1.20000000E+01  1.59949146E+01
  1.59949146E+01  1.00782504E+00  1.00782504E+00  1.00782504E+00  1.00782504E+00
Atom fragment info                         I   N=          10
           0           0           0           0           0           0
           0           0           0           0
Atom residue num                           I   N=          10
           0           0           0           0           0           0
           0           0           0           0
Nuclear spins                              I   N=          10
           0           0           0           0           0           0
           1           1           1           1
Nuclear ZEff                               R   N=          10
 -3.60000000E+00 -3.60000000E+00 -5.60000000E+00 -3.60000000E+00 -5.60000000E+00
 -5.60000000E+00 -1.00000000E+00 -1.00000000E+00 -1.00000000E+00 -1.00000000E+00
Nuclear ZNuc                               R   N=          10
  6.00000000E+00  6.00000000E+00  8.00000000E+00  6.00000000E+00  8.00000000E+00
  8.00000000E+00  1.00000000E+00  1.00000000E+00  1.00000000E+00  1.00000000E+00
Nuclear QMom                               R   N=          10
  0.00000000E+00  0.00000000E+00  0.00000000E+00  0.00000000E+00  0.00000000E+00
  0.00000000E+00  0.00000000E+00  0.00000000E+00  0.00000000E+00  0.00000000E+00
Nuclear GFac                               R   N=          10
  0.00000000E+00  0.00000000E+00  0.00000000E+00  0.00000000E+00  0.00000000E+00
  0.00000000E+00  2.79284600E+00  2.79284600E+00  2.79284600E+00  2.79284600E+00
MicOpt                                     I   N=          10
          -1          -1          -1          -1          -1          -1
          -1          -1          -1          -1
Number of residues                         I                0
Number of secondary structures             I                0
Redundant internal dimensions              I   N=           4
          46          10          17          19
Redundant internal coordinate indices      I   N=         184
           1           2           0           0           1           6
           0           0           1           7           0           0
           1           8           0           0           2           3
           0           0           2           9           0           0
           2          10           0           0           3           4
           0           0           4           5           0           0
           4           6           0           0           2           1
           6           0           2           1           7           0
           2           1           8           0           6           1
           7           0           6           1           8           0
           7           1           8           0           1           2
           3           0           1           2           9           0
           1           2          10           0           3           2
           9           0           3           2          10           0
           9           2          10           0           2           3
           4           0           3           4           5           0
           3           4           6           0           5           4
           6           0           1           6           4           0
           6           1           2           3           6           1
           2           9           6           1           2          10
           7           1           2           3           7           1
           2           9           7           1           2          10
           8           1           2           3           8           1
           2           9           8           1           2          10
           2           1           6           4           7           1
           6           4           8           1           6           4
           1           2           3           4           9           2
           3           4          10           2           3           4
           2           3           4           5           2           3
           4           6           3           4           6           1
           5           4           6           1
Redundant internal coordinates             R   N=          46
  2.89220536E+00  2.74324937E+00  2.05736088E+00  2.06377618E+00  2.74324731E+00
  2.05736112E+00  2.06377603E+00  2.54907226E+00  2.28331581E+00  2.54907322E+00
  1.79088916E+00  1.98566912E+00  1.97284272E+00  1.89108035E+00  1.88552053E+00
  1.92863498E+00  1.79088203E+00  1.98565661E+00  1.97285850E+00  1.89108228E+00
  1.88552003E+00  1.92863678E+00  1.90850821E+00  2.17070845E+00  1.94176865E+00
  2.17070817E+00  1.90851775E+00 -3.71661848E-01 -2.41039981E+00  1.65453202E+00
 -2.41040775E+00  1.83403960E+00 -3.84213881E-01  1.65452955E+00 -3.84208407E-01
 -2.60246188E+00  3.17944387E-01  2.42319911E+00 -1.77013137E+00  3.18069238E-01
  2.42330678E+00 -1.77002073E+00  3.01006772E+00 -1.31836626E-01 -1.31620366E-01
  3.00966059E+00
ZRed-IntVec                                I   N=          46
           0           0           0           0           0           0
           0           0           0           0           0           0
           0           0           0           0           0           0
           0           0           0           0           0           0
           0           0           0           0           0           0
           0           0           0           0           0           0
           0           0           0           0           0           0
           0           0           0           0
ZRed-FPVec                                 R   N=          46
  0.00000000E+00  0.00000000E+00  0.00000000E+00  0.00000000E+00  0.00000000E+00
  0.00000000E+00  0.00000000E+00  0.00000000E+00  0.00000000E+00  0.00000000E+00
  0.00000000E+00  0.00000000E+00  0.00000000E+00  0.00000000E+00  0.00000000E+00
  0.00000000E+00  0.00000000E+00  0.00000000E+00  0.00000000E+00  0.00000000E+00
  0.00000000E+00  0.00000000E+00  0.00000000E+00  0.00000000E+00  0.00000000E+00
  0.00000000E+00  0.00000000E+00  0.00000000E+00  0.00000000E+00  0.00000000E+00
  0.00000000E+00  0.00000000E+00  0.00000000E+00  0.00000000E+00  0.00000000E+00
  0.00000000E+00  0.00000000E+00  0.00000000E+00  0.00000000E+00  0.00000000E+00
  0.00000000E+00  0.00000000E+00  0.00000000E+00  0.00000000E+00  0.00000000E+00
  0.00000000E+00
ZRed-Constraint1                           R   N=          46
  2.89220536E+00  2.74324937E+00  2.05736088E+00  2.06377618E+00  2.74324731E+00
  2.05736112E+00  2.06377603E+00  2.54907226E+00  2.28331581E+00  2.54907322E+00
  1.79088916E+00  1.98566912E+00  1.97284272E+00  1.89108035E+00  1.88552053E+00
  1.92863498E+00  1.79088203E+00  1.98565661E+00  1.97285850E+00  1.89108228E+00
  1.88552003E+00  1.92863678E+00  1.90850821E+00  2.17070845E+00  1.94176865E+00
  2.17070817E+00  1.90851775E+00 -3.71661848E-01 -2.41039981E+00  1.65453202E+00
 -2.41040775E+00  1.83403960E+00 -3.84213881E-01  1.65452955E+00 -3.84208407E-01
 -2.60246188E+00  3.17944387E-01  2.42319911E+00 -1.77013137E+00  3.18069238E-01
  2.42330678E+00 -1.77002073E+00  3.01006772E+00 -1.31836626E-01 -1.31620366E-01
  3.00966059E+00
ZRed-Constraint2                           R   N=          46
  2.82297127E+00  2.67409076E+00  2.06603660E+00  2.06974934E+00  2.67409113E+00
  2.06603714E+00  2.06974977E+00  2.58280661E+00  2.30312576E+00  2.58280631E+00
  1.79495199E+00  1.96455044E+00  1.96326177E+00  1.93791457E+00  1.89557963E+00
  1.90470599E+00  1.79495204E+00  1.96455076E+00  1.96326206E+00  1.93791440E+00
  1.89557953E+00  1.90470562E+00  1.85883751E+00  2.17236830E+00  1.93844853E+00
  2.17236848E+00  1.85883741E+00 -5.55302593E-01 -2.64204786E+00  1.48068807E+00
 -2.64204787E+00  1.55439217E+00 -6.06057206E-01  1.48068804E+00 -6.06057226E-01
 -2.76650661E+00  4.54831636E-01  2.55996203E+00 -1.62884176E+00  4.54829540E-01
  2.55996026E+00 -1.62884416E+00  2.95577197E+00 -1.85820218E-01 -1.85823741E-01
  2.95576938E+00
SymInf integers                            I   N=          26
           1           1           1           1           1           0
           0           0           0           0           0           0
           0           0           0           0           0           0
           0           0           0           0           0           0
           0           0
RotTr to input orientation                 R   N=          12
  9.98386287E-01 -4.77880977E-02 -3.06776726E-02 -4.99858437E-02 -9.95899914E-01
 -7.53974574E-02 -2.69487905E-02  7.68092368E-02 -9.96681546E-01  1.23880254E+00
 -5.93002353E-02 -3.80493798E-02
Number of contracted shells                I               46
Number of primitive shells                 I               96
Pure/Cartesian d shells                    I                1
Pure/Cartesian f shells                    I                0
Highest angular momentum                   I                2
Largest degree of contraction              I                6
Shell types                                I   N=          46
           0          -1          -1          -1           2           0
          -1          -1          -1           2           0          -1
          -1          -1           2           0          -1          -1
          -1           2           0          -1          -1          -1
           2           0          -1          -1          -1           2
           0           0           0           1           0           0
           0           1           0           0           0           1
           0           0           0           1
Number of primitives per shell             I   N=          46
           6           3           1           1           1           6
           3           1           1           1           6           3
           1           1           1           6           3           1
           1           1           6           3           1           1
           1           6           3           1           1           1
           3           1           1           1           3           1
           1           1           3           1           1           1
           3           1           1           1
Shell to atom map                          I   N=          46
           1           1           1           1           1           2
           2           2           2           2           3           3
           3           3           3           4           4           4
           4           4           5           5           5           5
           5           6           6           6           6           6
           7           7           7           7           8           8
           8           8           9           9           9           9
          10          10          10          10
Primitive exponents                        R   N=          96
  3.04752488E+03  4.57369518E+02  1.03948685E+02  2.92101553E+01  9.28666296E+00
  3.16392696E+00  7.86827235E+00  1.88128854E+00  5.44249258E-01  1.68714478E-01
  4.38000000E-02  8.00000000E-01  3.04752488E+03  4.57369518E+02  1.03948685E+02
  2.92101553E+01  9.28666296E+00  3.16392696E+00  7.86827235E+00  1.88128854E+00
  5.44249258E-01  1.68714478E-01  4.38000000E-02  8.00000000E-01  5.48467166E+03
  8.25234946E+02  1.88046958E+02  5.29645000E+01  1.68975704E+01  5.79963534E+00
  1.55396162E+01  3.59993359E+00  1.01376175E+00  2.70005823E-01  8.45000000E-02
  8.00000000E-01  3.04752488E+03  4.57369518E+02  1.03948685E+02  2.92101553E+01
  9.28666296E+00  3.16392696E+00  7.86827235E+00  1.88128854E+00  5.44249258E-01
  1.68714478E-01  4.38000000E-02  8.00000000E-01  5.48467166E+03  8.25234946E+02
  1.88046958E+02  5.29645000E+01  1.68975704E+01  5.79963534E+00  1.55396162E+01
  3.59993359E+00  1.01376175E+00  2.70005823E-01  8.45000000E-02  8.00000000E-01
  5.48467166E+03  8.25234946E+02  1.88046958E+02  5.29645000E+01  1.68975704E+01
  5.79963534E+00  1.55396162E+01  3.59993359E+00  1.01376175E+00  2.70005823E-01
  8.45000000E-02  8.00000000E-01  1.87311370E+01  2.82539436E+00  6.40121692E-01
  1.61277759E-01  3.60000000E-02  1.10000000E+00  1.87311370E+01  2.82539436E+00
  6.40121692E-01  1.61277759E-01  3.60000000E-02  1.10000000E+00  1.87311370E+01
  2.82539436E+00  6.40121692E-01  1.61277759E-01  3.60000000E-02  1.10000000E+00
  1.87311370E+01  2.82539436E+00  6.40121692E-01  1.61277759E-01  3.60000000E-02
  1.10000000E+00
Contraction coefficients                   R   N=          96
  1.83473713E-03  1.40373228E-02  6.88426223E-02  2.32184443E-01  4.67941348E-01
  3.62311985E-01 -1.19332420E-01 -1.60854152E-01  1.14345644E+00  1.00000000E+00
  1.00000000E+00  1.00000000E+00  1.83473713E-03  1.40373228E-02  6.88426223E-02
  2.32184443E-01  4.67941348E-01  3.62311985E-01 -1.19332420E-01 -1.60854152E-01
  1.14345644E+00  1.00000000E+00  1.00000000E+00  1.00000000E+00  1.83107443E-03
  1.39501722E-02  6.84450781E-02  2.32714336E-01  4.70192898E-01  3.58520853E-01
 -1.10777550E-01 -1.48026263E-01  1.13076702E+00  1.00000000E+00  1.00000000E+00
  1.00000000E+00  1.83473713E-03  1.40373228E-02  6.88426223E-02  2.32184443E-01
  4.67941348E-01  3.62311985E-01 -1.19332420E-01 -1.60854152E-01  1.14345644E+00
  1.00000000E+00  1.00000000E+00  1.00000000E+00  1.83107443E-03  1.39501722E-02
  6.84450781E-02  2.32714336E-01  4.70192898E-01  3.58520853E-01 -1.10777550E-01
 -1.48026263E-01  1.13076702E+00  1.00000000E+00  1.00000000E+00  1.00000000E+00
  1.83107443E-03  1.39501722E-02  6.84450781E-02  2.32714336E-01  4.70192898E-01
  3.58520853E-01 -1.10777550E-01 -1.48026263E-01  1.13076702E+00  1.00000000E+00
  1.00000000E+00  1.00000000E+00  3.34946043E-02  2.34726953E-01  8.13757326E-01
  1.00000000E+00  1.00000000E+00  1.00000000E+00  3.34946043E-02  2.34726953E-01
  8.13757326E-01  1.00000000E+00  1.00000000E+00  1.00000000E+00  3.34946043E-02
  2.34726953E-01  8.13757326E-01  1.00000000E+00  1.00000000E+00  1.00000000E+00
  3.34946043E-02  2.34726953E-01  8.13757326E-01  1.00000000E+00  1.00000000E+00
  1.00000000E+00
P(S=P) Contraction coefficients            R   N=          96
  0.00000000E+00  0.00000000E+00  0.00000000E+00  0.00000000E+00  0.00000000E+00
  0.00000000E+00  6.89990666E-02  3.16423961E-01  7.44308291E-01  1.00000000E+00
  1.00000000E+00  0.00000000E+00  0.00000000E+00  0.00000000E+00  0.00000000E+00
  0.00000000E+00  0.00000000E+00  0.00000000E+00  6.89990666E-02  3.16423961E-01
  7.44308291E-01  1.00000000E+00  1.00000000E+00  0.00000000E+00  0.00000000E+00
  0.00000000E+00  0.00000000E+00  0.00000000E+00  0.00000000E+00  0.00000000E+00
  7.08742682E-02  3.39752839E-01  7.27158577E-01  1.00000000E+00  1.00000000E+00
  0.00000000E+00  0.00000000E+00  0.00000000E+00  0.00000000E+00  0.00000000E+00
  0.00000000E+00  0.00000000E+00  6.89990666E-02  3.16423961E-01  7.44308291E-01
  1.00000000E+00  1.00000000E+00  0.00000000E+00  0.00000000E+00  0.00000000E+00
  0.00000000E+00  0.00000000E+00  0.00000000E+00  0.00000000E+00  7.08742682E-02
  3.39752839E-01  7.27158577E-01  1.00000000E+00  1.00000000E+00  0.00000000E+00
  0.00000000E+00  0.00000000E+00  0.00000000E+00  0.00000000E+00  0.00000000E+00
  0.00000000E+00  7.08742682E-02  3.39752839E-01  7.27158577E-01  1.00000000E+00
  1.00000000E+00  0.00000000E+00  0.00000000E+00  0.00000000E+00  0.00000000E+00
  0.00000000E+00  0.00000000E+00  0.00000000E+00  0.00000000E+00  0.00000000E+00
  0.00000000E+00  0.00000000E+00  0.00000000E+00  0.00000000E+00  0.00000000E+00
  0.00000000E+00  0.00000000E+00  0.00000000E+00  0.00000000E+00  0.00000000E+00
  0.00000000E+00  0.00000000E+00  0.00000000E+00  0.00000000E+00  0.00000000E+00
  0.00000000E+00
Coordinates of each shell                  R   N=         138
 -2.47916262E+00 -1.43054615E+00  2.11626540E-01 -2.47916262E+00 -1.43054615E+00
  2.11626540E-01 -2.47916262E+00 -1.43054615E+00  2.11626540E-01 -2.47916262E+00
 -1.43054615E+00  2.11626540E-01 -2.47916262E+00 -1.43054615E+00  2.11626540E-01
 -2.47918841E+00  1.43053092E+00 -2.11563491E-01 -2.47918841E+00  1.43053092E+00
 -2.11563491E-01 -2.47918841E+00  1.43053092E+00 -2.11563491E-01 -2.47918841E+00
  1.43053092E+00 -2.11563491E-01 -2.47918841E+00  1.43053092E+00 -2.11563491E-01
  1.51800939E-01  2.09536268E+00  1.90057699E-01  1.51800939E-01  2.09536268E+00
  1.90057699E-01  1.51800939E-01  2.09536268E+00  1.90057699E-01  1.51800939E-01
  2.09536268E+00  1.90057699E-01  1.51800939E-01  2.09536268E+00  1.90057699E-01
  1.59093864E+00  2.12351468E-05 -1.95526082E-04  1.59093864E+00  2.12351468E-05
 -1.95526082E-04  1.59093864E+00  2.12351468E-05 -1.95526082E-04  1.59093864E+00
  2.12351468E-05 -1.95526082E-04  1.59093864E+00  2.12351468E-05 -1.95526082E-04
  3.87425443E+00  2.58124375E-06  1.07242302E-04  3.87425443E+00  2.58124375E-06
  1.07242302E-04  3.87425443E+00  2.58124375E-06  1.07242302E-04  3.87425443E+00
  2.58124375E-06  1.07242302E-04  3.87425443E+00  2.58124375E-06  1.07242302E-04
  1.51817162E-01 -2.09536479E+00 -1.90093059E-01  1.51817162E-01 -2.09536479E+00
 -1.90093059E-01  1.51817162E-01 -2.09536479E+00 -1.90093059E-01  1.51817162E-01
 -2.09536479E+00 -1.90093059E-01  1.51817162E-01 -2.09536479E+00 -1.90093059E-01
 -3.62430399E+00 -2.46958272E+00 -1.14549838E+00 -3.62430399E+00 -2.46958272E+00
 -1.14549838E+00 -3.62430399E+00 -2.46958272E+00 -1.14549838E+00 -3.62430399E+00
 -2.46958272E+00 -1.14549838E+00 -2.98490462E+00 -1.96155893E+00  2.14072544E+00
 -2.98490462E+00 -1.96155893E+00  2.14072544E+00 -2.98490462E+00 -1.96155893E+00
  2.14072544E+00 -2.98490462E+00 -1.96155893E+00  2.14072544E+00 -3.62428469E+00
  2.46953275E+00  1.14562644E+00 -3.62428469E+00  2.46953275E+00  1.14562644E+00
 -3.62428469E+00  2.46953275E+00  1.14562644E+00 -3.62428469E+00  2.46953275E+00
  1.14562644E+00 -2.98501260E+00  1.96156908E+00 -2.14063370E+00 -2.98501260E+00
  1.96156908E+00 -2.14063370E+00 -2.98501260E+00  1.96156908E+00 -2.14063370E+00
 -2.98501260E+00  1.96156908E+00 -2.14063370E+00
Num ILSW                                   I              100
ILSW                                       I   N=         100
           0           1           0           0           2           0
           0           0           0           0         402          -1
           5           0           0           0           2           0
           0           0           1           0           1           0
           1           0           0           0           0           0
           0           0      100000           0          -1           0
           0           0           0           0           0           0
           0           0           0           1           0           0
           0 -2000000000           1           0           0           0
           0           0         141          52           0           0
           0           0           5           0           0           0
           0           0           0           0           0           1
           0           0           0           0           0           0
           0           0           0           0           0           0
           0           0           0           0           0           0
           0           0           0           0           0           0
           0           0           0           0
Num RLSW                                   I               52
RLSW                                       R   N=          52
  8.00000000E-01  7.20000000E-01  1.00000000E+00  8.10000000E-01  2.00000000E-01
  0.00000000E+00  0.00000000E+00  1.00000000E+00  0.00000000E+00  0.00000000E+00
  0.00000000E+00  0.00000000E+00  1.00000000E+00  0.00000000E+00  0.00000000E+00
  0.00000000E+00  0.00000000E+00  1.00000000E+00  0.00000000E+00  0.00000000E+00
  0.00000000E+00  0.00000000E+00  1.00000000E+00  0.00000000E+00  0.00000000E+00
  0.00000000E+00  0.00000000E+00  1.00000000E+00  0.00000000E+00  0.00000000E+00
  0.00000000E+00  0.00000000E+00  1.00000000E+00  0.00000000E+00  0.00000000E+00
  0.00000000E+00  0.00000000E+00  0.00000000E+00  1.00000000E+00  1.00000000E+00
  0.00000000E+00  1.00000000E+00  0.00000000E+00  0.00000000E+00  0.00000000E+00
  0.00000000E+00  0.00000000E+00  0.00000000E+00  0.00000000E+00  0.00000000E+00
  0.00000000E+00  0.00000000E+00
MxBond                                     I                4
NBond                                      I   N=          10
           4           4           2           3           1           2
           1           1           1           1
IBond                                      I   N=          40
           2           6           7           8           1           3
           9          10           2           4           0           0
           3           5           6           0           4           0
           0           0           1           4           0           0
           1           0           0           0           1           0
           0           0           2           0           0           0
           2           0           0           0
RBond                                      R   N=          40
  1.00000000E+00  1.00000000E+00  1.00000000E+00  1.00000000E+00  1.00000000E+00
  1.00000000E+00  1.00000000E+00  1.00000000E+00  1.00000000E+00  1.50000000E+00
  0.00000000E+00  0.00000000E+00  1.50000000E+00  2.00000000E+00  1.50000000E+00
  0.00000000E+00  2.00000000E+00  0.00000000E+00  0.00000000E+00  0.00000000E+00
  1.00000000E+00  1.50000000E+00  0.00000000E+00  0.00000000E+00  1.00000000E+00
  0.00000000E+00  0.00000000E+00  0.00000000E+00  1.00000000E+00  0.00000000E+00
  0.00000000E+00  0.00000000E+00  1.00000000E+00  0.00000000E+00  0.00000000E+00
  0.00000000E+00  1.00000000E+00  0.00000000E+00  0.00000000E+00  0.00000000E+00
Virial Ratio                               R      2.009068805283952E+00
SCF Energy                                 R     -3.424433968112564E+02
Total Energy                               R     -3.424433968112564E+02
RMS Force                                  R      9.065666463700495E-05
RMS Density                                R      5.260220184004039E-09
NImag                                      I                0
Job Status                                 I                1
Nuclear derivative order                   I                2
PCM-NSphere                                I               10
PCM-NGenSphere                             I               10
PCM-NOrd                                   I   N=          10
           1           2           3           4           5           6
           7           8           9          10
PCM-SphereRadii                            R   N=          10
  4.00253442E+00  4.00253442E+00  3.63772279E+00  4.00253442E+00  3.63772279E+00
  3.63772279E+00  2.99956228E+00  2.99956228E+00  2.99956228E+00  2.99956228E+00
PCM-SphereLoc                              R   N=          30
 -2.47916262E+00 -1.43054615E+00  2.11626540E-01 -2.47918841E+00  1.43053092E+00
 -2.11563491E-01  1.51800939E-01  2.09536268E+00  1.90057699E-01  1.59093864E+00
  2.12351468E-05 -1.95526082E-04  3.87425443E+00  2.58124375E-06  1.07242302E-04
  1.51817162E-01 -2.09536479E+00 -1.90093059E-01 -3.62430399E+00 -2.46958272E+00
 -1.14549838E+00 -2.98490462E+00 -1.96155893E+00  2.14072544E+00 -3.62428469E+00
  2.46953275E+00  1.14562644E+00 -2.98501260E+00  1.96156908E+00 -2.14063370E+00
External E-field                           R   N=          35
  0.00000000E+00  0.00000000E+00  0.00000000E+00  0.00000000E+00  0.00000000E+00
  0.00000000E+00  0.00000000E+00  0.00000000E+00  0.00000000E+00  0.00000000E+00
  0.00000000E+00  0.00000000E+00  0.00000000E+00  0.00000000E+00  0.00000000E+00
  0.00000000E+00  0.00000000E+00  0.00000000E+00  0.00000000E+00  0.00000000E+00
  0.00000000E+00  0.00000000E+00  0.00000000E+00  0.00000000E+00  0.00000000E+00
  0.00000000E+00  0.00000000E+00  0.00000000E+00  0.00000000E+00  0.00000000E+00
  0.00000000E+00  0.00000000E+00  0.00000000E+00  0.00000000E+00  0.00000000E+00
IOpCl                                      I                0
IROHF                                      I                0
Alpha Orbital Energies                     R   N=         138
 -1.92270288E+01 -1.92270214E+01 -1.91645312E+01 -1.03848918E+01 -1.02713916E+01
 -1.02711725E+01 -1.17656904E+00 -1.06354832E+00 -1.05691750E+00 -7.92771105E-01
 -6.89952247E-01 -6.19659119E-01 -5.51830937E-01 -5.30046490E-01 -5.13658640E-01
 -4.61253290E-01 -4.52650107E-01 -4.47736289E-01 -3.95888274E-01 -3.90363718E-01
 -3.29829397E-01 -3.24505840E-01 -3.18617503E-01 -8.05390293E-03  8.23497379E-03
  9.85142975E-03  1.95598487E-02  2.31266644E-02  5.16316275E-02  5.66709053E-02
  6.54953845E-02  7.61390571E-02  7.70157166E-02  9.99375231E-02  1.09911470E-01
  1.20651366E-01  1.24290912E-01  1.33885116E-01  1.40485294E-01  1.46597212E-01
  1.55462548E-01  1.78573109E-01  1.91635315E-01  1.99632667E-01  2.14067751E-01
  2.28260665E-01  2.42052787E-01  2.48663052E-01  2.73202076E-01  2.73569267E-01
  2.79427985E-01  2.86426880E-01  2.99310876E-01  3.21623645E-01  3.23923615E-01
  3.37784271E-01  3.60747374E-01  3.64455723E-01  3.72333681E-01  3.81389359E-01
  3.82843074E-01  4.97004495E-01  6.37983633E-01  6.51036532E-01  6.86278731E-01
  6.91915677E-01  7.23879783E-01  7.70938513E-01  7.75857163E-01  8.62482538E-01
  8.74715186E-01  9.32366878E-01  9.73664714E-01  1.00400448E+00  1.06129967E+00
  1.06337343E+00  1.12999967E+00  1.15526742E+00  1.20310543E+00  1.22028530E+00
  1.25167758E+00  1.27754325E+00  1.28548154E+00  1.29377907E+00  1.31251661E+00
  1.34023441E+00  1.39315948E+00  1.40681089E+00  1.43767009E+00  1.50909475E+00
  1.56291147E+00  1.59657295E+00  1.64202924E+00  1.67590438E+00  1.76514496E+00
  1.78418254E+00  1.81925293E+00  1.82063472E+00  1.85485205E+00  1.89944660E+00
  1.90434670E+00  1.92012484E+00  1.93517339E+00  1.97019343E+00  1.98962958E+00
  2.02856110E+00  2.09661704E+00  2.15227310E+00  2.20977494E+00  2.23722813E+00
  2.36506798E+00  2.43185136E+00  2.44390519E+00  2.48326617E+00  2.54407781E+00
  2.55739928E+00  2.61313693E+00  2.68961162E+00  2.69429737E+00  2.77146237E+00
  2.78394681E+00  2.81834606E+00  2.83069988E+00  2.89281456E+00  2.98200007E+00
  3.08366808E+00  3.18754227E+00  3.19937426E+00  3.26050314E+00  3.32748364E+00
  3.40018963E+00  3.51494940E+00  4.13619588E+00  4.31306491E+00  4.42375870E+00
  4.52153384E+00  4.56569364E+00  4.63181844E+00
Alpha MO coefficients                      R   N=       19044
  2.86532241E-05  1.55078386E-04 -2.06827810E-04  3.35312281E-05  2.73157238E-05