EC_B3LYP_6-31ppgd,p_pcm_Water                                           
Freq      RB3LYP                                                      6-31++G(d,p)        
Number of atoms                            I               10
Info1-9                                    I   N=           9
          19          19        1002           0           0         100
           6          18        -502
Full Title                                 C   N=           3
EC_B3LYP_6-31ppgd,p_pcm_Water       
Route                                      C   N=           6
# opt freq B3LYP/6-31++g(d,p) em=gd3bj scrf=(pcm,solvent=Wat
er)         
Charge                                     I                0
Multiplicity                               I                1
Number of electrons                        I               46
Number of alpha electrons                  I               23
Number of beta electrons                   I               23
Number of basis functions                  I              138
Number of independent functions            I              138
Number of point charges in /Mol/           I                0
Number of translation vectors              I                0
Atomic numbers                             I   N=          10
           6           6           8           6           8           8
           1           1           1           1
Nuclear charges                            R   N=          10
  6.00000000E+00  6.00000000E+00  8.00000000E+00  6.00000000E+00  8.00000000E+00
  8.00000000E+00  1.00000000E+00  1.00000000E+00  1.00000000E+00  1.00000000E+00
Current cartesian coordinates              R   N=          30
  2.62858089E-16  1.44639015E+00 -2.48038218E+00 -3.29827952E-16 -1.44639015E+00
 -2.48038218E+00 -4.89310995E-01 -2.04580840E+00  1.53135592E-01 -6.39110008E-17
 -4.65801318E-16  1.58988710E+00 -1.58166602E-16 -1.14030226E-15  3.87448254E+00
  4.89310995E-01  2.04580840E+00  1.53135592E-01 -1.82914396E+00  2.25411327E+00
 -2.98928222E+00  1.49783655E+00  2.27523360E+00 -3.62110091E+00  1.82914396E+00
 -2.25411327E+00 -2.98928222E+00 -1.49783655E+00 -2.27523360E+00 -3.62110091E+00
Number of symbols in /Mol/                 I                0
Force Field                                I                0
Atom Types                                 C   N=          10
                                                            
                                                            
Int Atom Types                             I   N=          10
           0           0           0           0           0           0
           0           0           0           0
MM charges                                 R   N=          10
  0.00000000E+00  0.00000000E+00  0.00000000E+00  0.00000000E+00  0.00000000E+00
  0.00000000E+00  0.00000000E+00  0.00000000E+00  0.00000000E+00  0.00000000E+00
Integer atomic weights                     I   N=          10
          12          12          16          12          16          16
           1           1           1           1
Real atomic weights                        R   N=          10
  1.20000000E+01  1.20000000E+01  1.59949146E+01  1.20000000E+01  1.59949146E+01
  1.59949146E+01  1.00782504E+00  1.00782504E+00  1.00782504E+00  1.00782504E+00
Atom fragment info                         I   N=          10
           0           0           0           0           0           0
           0           0           0           0
Atom residue num                           I   N=          10
           0           0           0           0           0           0
           0           0           0           0
Nuclear spins                              I   N=          10
           0           0           0           0           0           0
           1           1           1           1
Nuclear ZEff                               R   N=          10
 -3.60000000E+00 -3.60000000E+00 -5.60000000E+00 -3.60000000E+00 -5.60000000E+00
 -5.60000000E+00 -1.00000000E+00 -1.00000000E+00 -1.00000000E+00 -1.00000000E+00
Nuclear ZNuc                               R   N=          10
  6.00000000E+00  6.00000000E+00  8.00000000E+00  6.00000000E+00  8.00000000E+00
  8.00000000E+00  1.00000000E+00  1.00000000E+00  1.00000000E+00  1.00000000E+00
Nuclear QMom                               R   N=          10
  0.00000000E+00  0.00000000E+00  0.00000000E+00  0.00000000E+00  0.00000000E+00
  0.00000000E+00  0.00000000E+00  0.00000000E+00  0.00000000E+00  0.00000000E+00
Nuclear GFac                               R   N=          10
  0.00000000E+00  0.00000000E+00  0.00000000E+00  0.00000000E+00  0.00000000E+00
  0.00000000E+00  2.79284600E+00  2.79284600E+00  2.79284600E+00  2.79284600E+00
MicOpt                                     I   N=          10
          -1          -1          -1          -1          -1          -1
          -1          -1          -1          -1
Number of residues                         I                0
Number of secondary structures             I                0
Redundant internal dimensions              I   N=           4
          46          10          17          19
Redundant internal coordinate indices      I   N=         184
           1           2           0           0           1           6
           0           0           1           7           0           0
           1           8           0           0           2           3
           0           0           2           9           0           0
           2          10           0           0           3           4
           0           0           4           5           0           0
           4           6           0           0           2           1
           6           0           2           1           7           0
           2           1           8           0           6           1
           7           0           6           1           8           0
           7           1           8           0           1           2
           3           0           1           2           9           0
           1           2          10           0           3           2
           9           0           3           2          10           0
           9           2          10           0           2           3
           4           0           3           4           5           0
           3           4           6           0           5           4
           6           0           1           6           4           0
           6           1           2           3           6           1
           2           9           6           1           2          10
           7           1           2           3           7           1
           2           9           7           1           2          10
           8           1           2           3           8           1
           2           9           8           1           2          10
           2           1           6           4           7           1
           6           4           8           1           6           4
           1           2           3           4           9           2
           3           4          10           2           3           4
           2           3           4           5           2           3
           4           6           3           4           6           1
           5           4           6           1
Redundant internal coordinates             R   N=          46
  2.89278031E+00  2.74483940E+00  2.06328949E+00  2.05711813E+00  2.74483940E+00
  2.06328949E+00  2.05711813E+00  2.54735396E+00  2.28459544E+00  2.54735396E+00
  1.79095050E+00  1.97302865E+00  1.98549575E+00  1.88513518E+00  1.89045755E+00
  1.92942909E+00  1.79095050E+00  1.97302865E+00  1.98549575E+00  1.88513518E+00
  1.89045755E+00  1.92942909E+00  1.90870707E+00  2.17003895E+00  1.94310740E+00
  2.17003895E+00  1.90870707E+00  3.67412854E-01 -1.65844502E+00  2.40537243E+00
 -1.65844502E+00  2.59888241E+00  3.79514554E-01  2.40537243E+00  3.79514554E-01
 -1.83985330E+00 -3.14542365E-01  1.77360577E+00 -2.41934581E+00 -3.14542365E-01
  1.77360577E+00 -2.41934581E+00 -3.01130008E+00  1.30292570E-01  1.30292570E-01
 -3.01130008E+00
ZRed-IntVec                                I   N=          46
           0           0           0           0           0           0
           0           0           0           0           0           0
           0           0           0           0           0           0
           0           0           0           0           0           0
           0           0           0           0           0           0
           0           0           0           0           0           0
           0           0           0           0           0           0
           0           0           0           0
ZRed-FPVec                                 R   N=          46
  0.00000000E+00  0.00000000E+00  0.00000000E+00  0.00000000E+00  0.00000000E+00
  0.00000000E+00  0.00000000E+00  0.00000000E+00  0.00000000E+00  0.00000000E+00
  0.00000000E+00  0.00000000E+00  0.00000000E+00  0.00000000E+00  0.00000000E+00
  0.00000000E+00  0.00000000E+00  0.00000000E+00  0.00000000E+00  0.00000000E+00
  0.00000000E+00  0.00000000E+00  0.00000000E+00  0.00000000E+00  0.00000000E+00
  0.00000000E+00  0.00000000E+00  0.00000000E+00  0.00000000E+00  0.00000000E+00
  0.00000000E+00  0.00000000E+00  0.00000000E+00  0.00000000E+00  0.00000000E+00
  0.00000000E+00  0.00000000E+00  0.00000000E+00  0.00000000E+00  0.00000000E+00
  0.00000000E+00  0.00000000E+00  0.00000000E+00  0.00000000E+00  0.00000000E+00
  0.00000000E+00
ZRed-Constraint1                           R   N=          46
  2.89278031E+00  2.74483940E+00  2.06328949E+00  2.05711813E+00  2.74483940E+00
  2.06328949E+00  2.05711813E+00  2.54735396E+00  2.28459544E+00  2.54735396E+00
  1.79095050E+00  1.97302865E+00  1.98549575E+00  1.88513518E+00  1.89045755E+00
  1.92942909E+00  1.79095050E+00  1.97302865E+00  1.98549575E+00  1.88513518E+00
  1.89045755E+00  1.92942909E+00  1.90870707E+00  2.17003895E+00  1.94310740E+00
  2.17003895E+00  1.90870707E+00  3.67412854E-01 -1.65844502E+00  2.40537243E+00
 -1.65844502E+00  2.59888241E+00  3.79514554E-01  2.40537243E+00  3.79514554E-01
 -1.83985330E+00 -3.14542365E-01  1.77360577E+00 -2.41934581E+00 -3.14542365E-01
  1.77360577E+00 -2.41934581E+00 -3.01130008E+00  1.30292570E-01  1.30292570E-01
 -3.01130008E+00
ZRed-Constraint2                           R   N=          46
  2.82297177E+00  2.67409002E+00  2.06974942E+00  2.06603646E+00  2.67409034E+00
  2.06974898E+00  2.06603595E+00  2.58280665E+00  2.30312530E+00  2.58280667E+00
  1.79495198E+00  1.96326249E+00  1.96455085E+00  1.89557990E+00  1.93791545E+00
  1.90470393E+00  1.79495102E+00  1.96326247E+00  1.96455147E+00  1.89558001E+00
  1.93791500E+00  1.90470451E+00  1.85883752E+00  2.17236860E+00  1.93844814E+00
  2.17236856E+00  1.85883709E+00  5.55305236E-01 -1.48068560E+00  2.64205094E+00
 -1.48068603E+00  2.76650844E+00  6.06059681E-01  2.64205175E+00  6.06060916E-01
 -1.55438785E+00 -4.54832528E-01  1.62884180E+00 -2.55996384E+00 -4.54832857E-01
  1.62884100E+00 -2.55996411E+00 -2.95576960E+00  1.85823357E-01  1.85822461E-01
 -2.95576989E+00
SymInf integers                            I   N=          26
           2           2           1           1           1          -1
          -1           1           0           0           0           0
           0           0           0           0           0           0
           0           0           0           0           0           0
           0           0
RotTr to input orientation                 R   N=          12
  1.48536087E-02 -9.54917544E-02  9.95319394E-01  1.78741500E-02 -9.95244792E-01
 -9.57513412E-02  9.99729906E-01  1.92127411E-02 -1.30761428E-02  1.24075388E+00
  2.38448092E-02 -1.62286902E-02
Number of contracted shells                I               46
Number of primitive shells                 I               96
Pure/Cartesian d shells                    I                1
Pure/Cartesian f shells                    I                0
Highest angular momentum                   I                2
Largest degree of contraction              I                6
Shell types                                I   N=          46
           0          -1          -1          -1           2           0
          -1          -1          -1           2           0          -1
          -1          -1           2           0          -1          -1
          -1           2           0          -1          -1          -1
           2           0          -1          -1          -1           2
           0           0           0           1           0           0
           0           1           0           0           0           1
           0           0           0           1
Number of primitives per shell             I   N=          46
           6           3           1           1           1           6
           3           1           1           1           6           3
           1           1           1           6           3           1
           1           1           6           3           1           1
           1           6           3           1           1           1
           3           1           1           1           3           1
           1           1           3           1           1           1
           3           1           1           1
Shell to atom map                          I   N=          46
           1           1           1           1           1           2
           2           2           2           2           3           3
           3           3           3           4           4           4
           4           4           5           5           5           5
           5           6           6           6           6           6
           7           7           7           7           8           8
           8           8           9           9           9           9
          10          10          10          10
Primitive exponents                        R   N=          96
  3.04752488E+03  4.57369518E+02  1.03948685E+02  2.92101553E+01  9.28666296E+00
  3.16392696E+00  7.86827235E+00  1.88128854E+00  5.44249258E-01  1.68714478E-01
  4.38000000E-02  8.00000000E-01  3.04752488E+03  4.57369518E+02  1.03948685E+02
  2.92101553E+01  9.28666296E+00  3.16392696E+00  7.86827235E+00  1.88128854E+00
  5.44249258E-01  1.68714478E-01  4.38000000E-02  8.00000000E-01  5.48467166E+03
  8.25234946E+02  1.88046958E+02  5.29645000E+01  1.68975704E+01  5.79963534E+00
  1.55396162E+01  3.59993359E+00  1.01376175E+00  2.70005823E-01  8.45000000E-02
  8.00000000E-01  3.04752488E+03  4.57369518E+02  1.03948685E+02  2.92101553E+01
  9.28666296E+00  3.16392696E+00  7.86827235E+00  1.88128854E+00  5.44249258E-01
  1.68714478E-01  4.38000000E-02  8.00000000E-01  5.48467166E+03  8.25234946E+02
  1.88046958E+02  5.29645000E+01  1.68975704E+01  5.79963534E+00  1.55396162E+01
  3.59993359E+00  1.01376175E+00  2.70005823E-01  8.45000000E-02  8.00000000E-01
  5.48467166E+03  8.25234946E+02  1.88046958E+02  5.29645000E+01  1.68975704E+01
  5.79963534E+00  1.55396162E+01  3.59993359E+00  1.01376175E+00  2.70005823E-01
  8.45000000E-02  8.00000000E-01  1.87311370E+01  2.82539436E+00  6.40121692E-01
  1.61277759E-01  3.60000000E-02  1.10000000E+00  1.87311370E+01  2.82539436E+00
  6.40121692E-01  1.61277759E-01  3.60000000E-02  1.10000000E+00  1.87311370E+01
  2.82539436E+00  6.40121692E-01  1.61277759E-01  3.60000000E-02  1.10000000E+00
  1.87311370E+01  2.82539436E+00  6.40121692E-01  1.61277759E-01  3.60000000E-02
  1.10000000E+00
Contraction coefficients                   R   N=          96
  1.83473713E-03  1.40373228E-02  6.88426223E-02  2.32184443E-01  4.67941348E-01
  3.62311985E-01 -1.19332420E-01 -1.60854152E-01  1.14345644E+00  1.00000000E+00
  1.00000000E+00  1.00000000E+00  1.83473713E-03  1.40373228E-02  6.88426223E-02
  2.32184443E-01  4.67941348E-01  3.62311985E-01 -1.19332420E-01 -1.60854152E-01
  1.14345644E+00  1.00000000E+00  1.00000000E+00  1.00000000E+00  1.83107443E-03
  1.39501722E-02  6.84450781E-02  2.32714336E-01  4.70192898E-01  3.58520853E-01
 -1.10777550E-01 -1.48026263E-01  1.13076702E+00  1.00000000E+00  1.00000000E+00
  1.00000000E+00  1.83473713E-03  1.40373228E-02  6.88426223E-02  2.32184443E-01
  4.67941348E-01  3.62311985E-01 -1.19332420E-01 -1.60854152E-01  1.14345644E+00
  1.00000000E+00  1.00000000E+00  1.00000000E+00  1.83107443E-03  1.39501722E-02
  6.84450781E-02  2.32714336E-01  4.70192898E-01  3.58520853E-01 -1.10777550E-01
 -1.48026263E-01  1.13076702E+00  1.00000000E+00  1.00000000E+00  1.00000000E+00
  1.83107443E-03  1.39501722E-02  6.84450781E-02  2.32714336E-01  4.70192898E-01
  3.58520853E-01 -1.10777550E-01 -1.48026263E-01  1.13076702E+00  1.00000000E+00
  1.00000000E+00  1.00000000E+00  3.34946043E-02  2.34726953E-01  8.13757326E-01
  1.00000000E+00  1.00000000E+00  1.00000000E+00  3.34946043E-02  2.34726953E-01
  8.13757326E-01  1.00000000E+00  1.00000000E+00  1.00000000E+00  3.34946043E-02
  2.34726953E-01  8.13757326E-01  1.00000000E+00  1.00000000E+00  1.00000000E+00
  3.34946043E-02  2.34726953E-01  8.13757326E-01  1.00000000E+00  1.00000000E+00
  1.00000000E+00
P(S=P) Contraction coefficients            R   N=          96
  0.00000000E+00  0.00000000E+00  0.00000000E+00  0.00000000E+00  0.00000000E+00
  0.00000000E+00  6.89990666E-02  3.16423961E-01  7.44308291E-01  1.00000000E+00
  1.00000000E+00  0.00000000E+00  0.00000000E+00  0.00000000E+00  0.00000000E+00
  0.00000000E+00  0.00000000E+00  0.00000000E+00  6.89990666E-02  3.16423961E-01
  7.44308291E-01  1.00000000E+00  1.00000000E+00  0.00000000E+00  0.00000000E+00
  0.00000000E+00  0.00000000E+00  0.00000000E+00  0.00000000E+00  0.00000000E+00
  7.08742682E-02  3.39752839E-01  7.27158577E-01  1.00000000E+00  1.00000000E+00
  0.00000000E+00  0.00000000E+00  0.00000000E+00  0.00000000E+00  0.00000000E+00
  0.00000000E+00  0.00000000E+00  6.89990666E-02  3.16423961E-01  7.44308291E-01
  1.00000000E+00  1.00000000E+00  0.00000000E+00  0.00000000E+00  0.00000000E+00
  0.00000000E+00  0.00000000E+00  0.00000000E+00  0.00000000E+00  7.08742682E-02
  3.39752839E-01  7.27158577E-01  1.00000000E+00  1.00000000E+00  0.00000000E+00
  0.00000000E+00  0.00000000E+00  0.00000000E+00  0.00000000E+00  0.00000000E+00
  0.00000000E+00  7.08742682E-02  3.39752839E-01  7.27158577E-01  1.00000000E+00
  1.00000000E+00  0.00000000E+00  0.00000000E+00  0.00000000E+00  0.00000000E+00
  0.00000000E+00  0.00000000E+00  0.00000000E+00  0.00000000E+00  0.00000000E+00
  0.00000000E+00  0.00000000E+00  0.00000000E+00  0.00000000E+00  0.00000000E+00
  0.00000000E+00  0.00000000E+00  0.00000000E+00  0.00000000E+00  0.00000000E+00
  0.00000000E+00  0.00000000E+00  0.00000000E+00  0.00000000E+00  0.00000000E+00
  0.00000000E+00
Coordinates of each shell                  R   N=         138
  2.07346938E-16  1.44639015E+00 -2.48038218E+00  2.07346938E-16  1.44639015E+00
 -2.48038218E+00  2.07346938E-16  1.44639015E+00 -2.48038218E+00  2.07346938E-16
  1.44639015E+00 -2.48038218E+00  2.07346938E-16  1.44639015E+00 -2.48038218E+00
 -3.57453615E-16 -1.44639015E+00 -2.48038218E+00 -3.57453615E-16 -1.44639015E+00
 -2.48038218E+00 -3.57453615E-16 -1.44639015E+00 -2.48038218E+00 -3.57453615E-16
 -1.44639015E+00 -2.48038218E+00 -3.57453615E-16 -1.44639015E+00 -2.48038218E+00
 -4.89310995E-01 -2.04580840E+00  1.53135592E-01 -4.89310995E-01 -2.04580840E+00
  1.53135592E-01 -4.89310995E-01 -2.04580840E+00  1.53135592E-01 -4.89310995E-01
 -2.04580840E+00  1.53135592E-01 -4.89310995E-01 -2.04580840E+00  1.53135592E-01
 -4.30943191E-17 -3.06640439E-16  1.58988710E+00 -4.30943191E-17 -3.06640439E-16
  1.58988710E+00 -4.30943191E-17 -3.06640439E-16  1.58988710E+00 -4.30943191E-17
 -3.06640439E-16  1.58988710E+00 -4.30943191E-17 -3.06640439E-16  1.58988710E+00
 -1.09659301E-16 -7.55655100E-16  3.87448254E+00 -1.09659301E-16 -7.55655100E-16
  3.87448254E+00 -1.09659301E-16 -7.55655100E-16  3.87448254E+00 -1.09659301E-16
 -7.55655100E-16  3.87448254E+00 -1.09659301E-16 -7.55655100E-16  3.87448254E+00
  4.89310995E-01  2.04580840E+00  1.53135592E-01  4.89310995E-01  2.04580840E+00
  1.53135592E-01  4.89310995E-01  2.04580840E+00  1.53135592E-01  4.89310995E-01
  2.04580840E+00  1.53135592E-01  4.89310995E-01  2.04580840E+00  1.53135592E-01
 -1.82914396E+00  2.25411327E+00 -2.98928222E+00 -1.82914396E+00  2.25411327E+00
 -2.98928222E+00 -1.82914396E+00  2.25411327E+00 -2.98928222E+00 -1.82914396E+00
  2.25411327E+00 -2.98928222E+00  1.49783655E+00  2.27523360E+00 -3.62110091E+00
  1.49783655E+00  2.27523360E+00 -3.62110091E+00  1.49783655E+00  2.27523360E+00
 -3.62110091E+00  1.49783655E+00  2.27523360E+00 -3.62110091E+00  1.82914396E+00
 -2.25411327E+00 -2.98928222E+00  1.82914396E+00 -2.25411327E+00 -2.98928222E+00
  1.82914396E+00 -2.25411327E+00 -2.98928222E+00  1.82914396E+00 -2.25411327E+00
 -2.98928222E+00 -1.49783655E+00 -2.27523360E+00 -3.62110091E+00 -1.49783655E+00
 -2.27523360E+00 -3.62110091E+00 -1.49783655E+00 -2.27523360E+00 -3.62110091E+00
 -1.49783655E+00 -2.27523360E+00 -3.62110091E+00
Num ILSW                                   I              100
ILSW                                       I   N=         100
           0           1           0           0           2           0
           0           0           0           0         402          -1
           5           0           0           0           2           0
           0           0           1           0           1           0
           1           0           0           0           0           0
           0           0      100000           0          -1           0
           0           0           0           0           0           0
           0           0           0           1           0           0
           0 -2000000000           1           0           0           0
           0           0         141          52           0           0
           0           0           5           0           0           0
           0           0           0           0           0           1
           0           0           0           0           0           0
           0           0           0           0           0           0
           0           0           0           0           0           0
           0           0           0           0           0           0
           0           0           0           0
Num RLSW                                   I               52
RLSW                                       R   N=          52
  8.00000000E-01  7.20000000E-01  1.00000000E+00  8.10000000E-01  2.00000000E-01
  0.00000000E+00  0.00000000E+00  1.00000000E+00  0.00000000E+00  0.00000000E+00
  0.00000000E+00  0.00000000E+00  1.00000000E+00  0.00000000E+00  0.00000000E+00
  0.00000000E+00  0.00000000E+00  1.00000000E+00  0.00000000E+00  0.00000000E+00
  0.00000000E+00  0.00000000E+00  1.00000000E+00  0.00000000E+00  0.00000000E+00
  0.00000000E+00  0.00000000E+00  1.00000000E+00  0.00000000E+00  0.00000000E+00
  0.00000000E+00  0.00000000E+00  1.00000000E+00  0.00000000E+00  0.00000000E+00
  0.00000000E+00  0.00000000E+00  0.00000000E+00  1.00000000E+00  1.00000000E+00
  0.00000000E+00  1.00000000E+00  0.00000000E+00  0.00000000E+00  0.00000000E+00
  0.00000000E+00  0.00000000E+00  0.00000000E+00  0.00000000E+00  0.00000000E+00
  0.00000000E+00  0.00000000E+00
MxBond                                     I                4
NBond                                      I   N=          10
           4           4           2           3           1           2
           1           1           1           1
IBond                                      I   N=          40
           2           6           7           8           1           3
           9          10           2           4           0           0
           3           5           6           0           4           0
           0           0           1           4           0           0
           1           0           0           0           1           0
           0           0           2           0           0           0
           2           0           0           0
RBond                                      R   N=          40
  1.00000000E+00  1.00000000E+00  1.00000000E+00  1.00000000E+00  1.00000000E+00
  1.00000000E+00  1.00000000E+00  1.00000000E+00  1.00000000E+00  1.50000000E+00
  0.00000000E+00  0.00000000E+00  1.50000000E+00  2.00000000E+00  1.50000000E+00
  0.00000000E+00  2.00000000E+00  0.00000000E+00  0.00000000E+00  0.00000000E+00
  1.00000000E+00  1.50000000E+00  0.00000000E+00  0.00000000E+00  1.00000000E+00
  0.00000000E+00  0.00000000E+00  0.00000000E+00  1.00000000E+00  0.00000000E+00
  0.00000000E+00  0.00000000E+00  1.00000000E+00  0.00000000E+00  0.00000000E+00
  0.00000000E+00  1.00000000E+00  0.00000000E+00  0.00000000E+00  0.00000000E+00
Virial Ratio                               R      2.009075402890774E+00
SCF Energy                                 R     -3.424442717057757E+02
Total Energy                               R     -3.424442717057757E+02
RMS Force                                  R      2.182086490793856E-05
RMS Density                                R      1.868657793304290E-09
NImag                                      I                0
Job Status                                 I                1
Nuclear derivative order                   I                2
PCM-NSphere                                I               10
PCM-NGenSphere                             I               10
PCM-NOrd                                   I   N=          10
           1           2           3           4           5           6
           7           8           9          10
PCM-SphereRadii                            R   N=          10
  4.00253442E+00  4.00253442E+00  3.63772279E+00  4.00253442E+00  3.63772279E+00
  3.63772279E+00  2.99956228E+00  2.99956228E+00  2.99956228E+00  2.99956228E+00
PCM-SphereLoc                              R   N=          30
  2.62858089E-16  1.44639015E+00 -2.48038218E+00 -3.29827952E-16 -1.44639015E+00
 -2.48038218E+00 -4.89310995E-01 -2.04580840E+00  1.53135592E-01 -6.39110008E-17
 -4.65801318E-16  1.58988710E+00 -1.58166602E-16 -1.14030226E-15  3.87448254E+00
  4.89310995E-01  2.04580840E+00  1.53135592E-01 -1.82914396E+00  2.25411327E+00
 -2.98928222E+00  1.49783655E+00  2.27523360E+00 -3.62110091E+00  1.82914396E+00
 -2.25411327E+00 -2.98928222E+00 -1.49783655E+00 -2.27523360E+00 -3.62110091E+00
External E-field                           R   N=          35
  0.00000000E+00  0.00000000E+00  0.00000000E+00  0.00000000E+00  0.00000000E+00
  0.00000000E+00  0.00000000E+00  0.00000000E+00  0.00000000E+00  0.00000000E+00
  0.00000000E+00  0.00000000E+00  0.00000000E+00  0.00000000E+00  0.00000000E+00
  0.00000000E+00  0.00000000E+00  0.00000000E+00  0.00000000E+00  0.00000000E+00
  0.00000000E+00  0.00000000E+00  0.00000000E+00  0.00000000E+00  0.00000000E+00
  0.00000000E+00  0.00000000E+00  0.00000000E+00  0.00000000E+00  0.00000000E+00
  0.00000000E+00  0.00000000E+00  0.00000000E+00  0.00000000E+00  0.00000000E+00
IOpCl                                      I                0
IROHF                                      I                0
Alpha Orbital Energies                     R   N=         138
 -1.92272132E+01 -1.92272058E+01 -1.91651987E+01 -1.03854546E+01 -1.02705837E+01
 -1.02703651E+01 -1.17687570E+00 -1.06373075E+00 -1.05721665E+00 -7.92214856E-01
 -6.89709696E-01 -6.19526539E-01 -5.51335209E-01 -5.29958505E-01 -5.13323751E-01
 -4.61765848E-01 -4.52631610E-01 -4.47131584E-01 -3.96127821E-01 -3.89970047E-01
 -3.30281935E-01 -3.24275316E-01 -3.19368423E-01 -7.77562430E-03  9.10894706E-03
  9.65620438E-03  2.02362331E-02  2.38304046E-02  5.09338005E-02  5.73093214E-02
  6.50613912E-02  7.68495510E-02  7.70298076E-02  9.99376377E-02  1.09846922E-01
  1.21168668E-01  1.25042569E-01  1.34811728E-01  1.41619816E-01  1.47554686E-01
  1.56139973E-01  1.78980350E-01  1.92244227E-01  1.99129609E-01  2.14130291E-01
  2.28116634E-01  2.42288273E-01  2.48488049E-01  2.72282685E-01  2.72528239E-01
  2.78604549E-01  2.85668363E-01  2.98550126E-01  3.22100157E-01  3.24145661E-01
  3.38047126E-01  3.60745281E-01  3.64684486E-01  3.72648510E-01  3.81616971E-01
  3.83189177E-01  4.96093268E-01  6.39068612E-01  6.52189707E-01  6.87430037E-01
  6.92550775E-01  7.23961442E-01  7.71560184E-01  7.75668346E-01  8.61921334E-01
  8.74959975E-01  9.33354849E-01  9.73708044E-01  1.00467468E+00  1.06256618E+00
  1.06293587E+00  1.12996918E+00  1.15547442E+00  1.20322957E+00  1.21949206E+00
  1.25176354E+00  1.27670229E+00  1.28480489E+00  1.29327539E+00  1.31161684E+00
  1.34027728E+00  1.39285918E+00  1.40661999E+00  1.43787696E+00  1.50935464E+00
  1.56384772E+00  1.59645101E+00  1.64303523E+00  1.67541374E+00  1.76460099E+00
  1.78397626E+00  1.81947470E+00  1.82010550E+00  1.85443969E+00  1.89868482E+00
  1.90475976E+00  1.91954834E+00  1.93532601E+00  1.96972731E+00  1.99029000E+00
  2.02877647E+00  2.09678242E+00  2.15309218E+00  2.21066237E+00  2.23788912E+00
  2.36636008E+00  2.43270530E+00  2.44475580E+00  2.48375159E+00  2.54471495E+00
  2.55846386E+00  2.61287272E+00  2.68998648E+00  2.69430026E+00  2.77195819E+00
  2.78543840E+00  2.81831229E+00  2.83091464E+00  2.89313160E+00  2.98295076E+00
  3.08273690E+00  3.18771950E+00  3.19818052E+00  3.26168549E+00  3.32934079E+00
  3.40091798E+00  3.51621924E+00  4.13536384E+00  4.31316061E+00  4.42494194E+00
  4.52037603E+00  4.56427872E+00  4.63278926E+00
Alpha MO coefficients                      R   N=       19044
  2.95329411E-05  1.57754445E-04 -3.23773262E-05 -3.07459993E-05 -2.10403869E-04