DMC_B3LYP_6-31ppgd,p_pcm_Acetone                                        
Freq      RB3LYP                                                      6-31++G(d,p)        
Number of atoms                            I               12
Info1-9                                    I   N=           9
          21          21        1002           0           0         100
           6          18        -502
Full Title                                 C   N=           3
DMC_B3LYP_6-31ppgd,p_pcm_Acetone    
Route                                      C   N=           6
# opt freq B3LYP/6-31++g(d,p) em=gd3bj scrf=(pcm,solvent=Ace
tone)       
Charge                                     I                0
Multiplicity                               I                1
Number of electrons                        I               48
Number of alpha electrons                  I               24
Number of beta electrons                   I               24
Number of basis functions                  I              150
Number of independent functions            I              150
Number of point charges in /Mol/           I                0
Number of translation vectors              I                0
Atomic numbers                             I   N=          12
           6           8           6           8           8           6
           1           1           1           1           1           1
Nuclear charges                            R   N=          12
  6.00000000E+00  8.00000000E+00  6.00000000E+00  8.00000000E+00  8.00000000E+00
  6.00000000E+00  1.00000000E+00  1.00000000E+00  1.00000000E+00  1.00000000E+00
  1.00000000E+00  1.00000000E+00
Current cartesian coordinates              R   N=          36
 -4.44834488E+00 -3.62747217E-02 -2.39547939E-05 -2.04748687E+00 -1.33919967E+00
  9.53570078E-06 -5.55223003E-18  1.40215586E-01  4.46208298E-05 -2.86401693E-17
  2.44229576E+00  7.37799846E-06  2.04748687E+00 -1.33919966E+00  9.70525822E-06
  4.44834489E+00 -3.62747283E-02 -2.40295250E-05 -4.62322096E+00  1.13361605E+00
  1.68968793E+00 -5.86633146E+00 -1.52582271E+00 -4.76787346E-05 -4.62317163E+00
  1.13362253E+00 -1.68973645E+00  4.62316862E+00  1.13362814E+00 -1.68973291E+00
  5.86633146E+00 -1.52582272E+00 -5.51077650E-05  4.62322398E+00  1.13361045E+00
  1.68969145E+00
Number of symbols in /Mol/                 I                0
Force Field                                I                0
Atom Types                                 C   N=          12
                                                            
                                                            
                        
Int Atom Types                             I   N=          12
           0           0           0           0           0           0
           0           0           0           0           0           0
MM charges                                 R   N=          12
  0.00000000E+00  0.00000000E+00  0.00000000E+00  0.00000000E+00  0.00000000E+00
  0.00000000E+00  0.00000000E+00  0.00000000E+00  0.00000000E+00  0.00000000E+00
  0.00000000E+00  0.00000000E+00
Integer atomic weights                     I   N=          12
          12          16          12          16          16          12
           1           1           1           1           1           1
Real atomic weights                        R   N=          12
  1.20000000E+01  1.59949146E+01  1.20000000E+01  1.59949146E+01  1.59949146E+01
  1.20000000E+01  1.00782504E+00  1.00782504E+00  1.00782504E+00  1.00782504E+00
  1.00782504E+00  1.00782504E+00
Atom fragment info                         I   N=          12
           0           0           0           0           0           0
           0           0           0           0           0           0
Atom residue num                           I   N=          12
           0           0           0           0           0           0
           0           0           0           0           0           0
Nuclear spins                              I   N=          12
           0           0           0           0           0           0
           1           1           1           1           1           1
Nuclear ZEff                               R   N=          12
 -3.60000000E+00 -5.60000000E+00 -3.60000000E+00 -5.60000000E+00 -5.60000000E+00
 -3.60000000E+00 -1.00000000E+00 -1.00000000E+00 -1.00000000E+00 -1.00000000E+00
 -1.00000000E+00 -1.00000000E+00
Nuclear ZNuc                               R   N=          12
  6.00000000E+00  8.00000000E+00  6.00000000E+00  8.00000000E+00  8.00000000E+00
  6.00000000E+00  1.00000000E+00  1.00000000E+00  1.00000000E+00  1.00000000E+00
  1.00000000E+00  1.00000000E+00
Nuclear QMom                               R   N=          12
  0.00000000E+00  0.00000000E+00  0.00000000E+00  0.00000000E+00  0.00000000E+00
  0.00000000E+00  0.00000000E+00  0.00000000E+00  0.00000000E+00  0.00000000E+00
  0.00000000E+00  0.00000000E+00
Nuclear GFac                               R   N=          12
  0.00000000E+00  0.00000000E+00  0.00000000E+00  0.00000000E+00  0.00000000E+00
  0.00000000E+00  2.79284600E+00  2.79284600E+00  2.79284600E+00  2.79284600E+00
  2.79284600E+00  2.79284600E+00
MicOpt                                     I   N=          12
          -1          -1          -1          -1          -1          -1
          -1          -1          -1          -1          -1          -1
Number of residues                         I                0
Number of secondary structures             I                0
Redundant internal dimensions              I   N=           4
          38          11          17          10
Redundant internal coordinate indices      I   N=         152
           1           2           0           0           1           7
           0           0           1           8           0           0
           1           9           0           0           2           3
           0           0           3           4           0           0
           3           5           0           0           5           6
           0           0           6          10           0           0
           6          11           0           0           6          12
           0           0           2           1           7           0
           2           1           8           0           2           1
           9           0           7           1           8           0
           7           1           9           0           8           1
           9           0           1           2           3           0
           2           3           4           0           2           3
           5           0           4           3           5           0
           3           5           6           0           5           6
          10           0           5           6          11           0
           5           6          12           0          10           6
          11           0          10           6          12           0
          11           6          12           0           7           1
           2           3           8           1           2           3
           9           1           2           3           1           2
           3           4           1           2           3           5
           2           3           5           6           4           3
           5           6           3           5           6          10
           3           5           6          11           3           5
           6          12
Redundant internal coordinates             R   N=          38
  2.73161722E+00  2.06260813E+00  2.05656003E+00  2.06260812E+00  2.52603879E+00
  2.30208017E+00  2.52603879E+00  2.73161721E+00  2.06260810E+00  2.05656003E+00
  2.06260816E+00  1.92308383E+00  1.83437238E+00  1.92308443E+00  1.93089015E+00
  1.92006932E+00  1.93089001E+00  2.01867640E+00  2.19649791E+00  1.89018949E+00
  2.19649791E+00  2.01867640E+00  1.92308453E+00  1.83437239E+00  1.92308373E+00
  1.93089007E+00  1.92006931E+00  1.93089010E+00 -1.06093929E+00 -3.14159177E+00
  1.06094091E+00 -2.30660590E-05 -3.14156657E+00  3.14156639E+00  2.28860977E-05
 -1.06093699E+00 -3.14158974E+00  1.06094319E+00
ZRed-IntVec                                I   N=          38
           0           0           0           0           0           0
           0           0           0           0           0           0
           0           0           0           0           0           0
           0           0           0           0           0           0
           0           0           0           0           0           0
           0           0           0           0           0           0
           0           0
ZRed-FPVec                                 R   N=          38
  0.00000000E+00  0.00000000E+00  0.00000000E+00  0.00000000E+00  0.00000000E+00
  0.00000000E+00  0.00000000E+00  0.00000000E+00  0.00000000E+00  0.00000000E+00
  0.00000000E+00  0.00000000E+00  0.00000000E+00  0.00000000E+00  0.00000000E+00
  0.00000000E+00  0.00000000E+00  0.00000000E+00  0.00000000E+00  0.00000000E+00
  0.00000000E+00  0.00000000E+00  0.00000000E+00  0.00000000E+00  0.00000000E+00
  0.00000000E+00  0.00000000E+00  0.00000000E+00  0.00000000E+00  0.00000000E+00
  0.00000000E+00  0.00000000E+00  0.00000000E+00  0.00000000E+00  0.00000000E+00
  0.00000000E+00  0.00000000E+00  0.00000000E+00
ZRed-Constraint1                           R   N=          38
  2.73161722E+00  2.06260813E+00  2.05656003E+00  2.06260812E+00  2.52603879E+00
  2.30208017E+00  2.52603879E+00  2.73161721E+00  2.06260810E+00  2.05656003E+00
  2.06260816E+00  1.92308383E+00  1.83437238E+00  1.92308443E+00  1.93089015E+00
  1.92006932E+00  1.93089001E+00  2.01867640E+00  2.19649791E+00  1.89018949E+00
  2.19649791E+00  2.01867640E+00  1.92308453E+00  1.83437239E+00  1.92308373E+00
  1.93089007E+00  1.92006931E+00  1.93089010E+00 -1.06093929E+00 -3.14159177E+00
  1.06094091E+00 -2.30660590E-05 -3.14156657E+00  3.14156639E+00  2.28860977E-05
 -1.06093699E+00 -3.14158974E+00  1.06094319E+00
ZRed-Constraint2                           R   N=          38
  2.69429620E+00  2.06853497E+00  2.06655421E+00  2.06853599E+00  2.56323568E+00
  2.30890620E+00  2.56323683E+00  2.69429647E+00  2.06853527E+00  2.06655435E+00
  2.06853612E+00  1.92992502E+00  1.88643147E+00  1.92992495E+00  1.89161448E+00
  1.93288622E+00  1.89161357E+00  1.98679145E+00  2.19733561E+00  1.88851312E+00
  2.19733657E+00  1.98679053E+00  1.92992584E+00  1.88643124E+00  1.92992504E+00
  1.89161376E+00  1.93288737E+00  1.89161236E+00 -1.07364080E+00 -3.14159186E+00
  1.07364353E+00 -3.13052083E-06  3.14158961E+00  3.14158960E+00 -2.96742698E-06
 -1.07363529E+00 -3.14158581E+00  1.07365113E+00
SymInf integers                            I   N=          26
           1           1           1           1           1           0
           0           0           0           0           0           0
           0           0           0           0           0           0
           0           0           0           0           0           0
           0           0
RotTr to input orientation                 R   N=          12
 -9.86068740E-01  4.05759213E-02  1.61313467E-01 -1.60236386E-01  2.85484704E-02
 -9.86665742E-01 -4.46401242E-02 -9.98768531E-01 -2.16490153E-02  1.75505191E-02
 -3.14110447E-03 -4.86246246E-02
Number of contracted shells                I               54
Number of primitive shells                 I              108
Pure/Cartesian d shells                    I                1
Pure/Cartesian f shells                    I                0
Highest angular momentum                   I                2
Largest degree of contraction              I                6
Shell types                                I   N=          54
           0          -1          -1          -1           2           0
          -1          -1          -1           2           0          -1
          -1          -1           2           0          -1          -1
          -1           2           0          -1          -1          -1
           2           0          -1          -1          -1           2
           0           0           0           1           0           0
           0           1           0           0           0           1
           0           0           0           1           0           0
           0           1           0           0           0           1
Number of primitives per shell             I   N=          54
           6           3           1           1           1           6
           3           1           1           1           6           3
           1           1           1           6           3           1
           1           1           6           3           1           1
           1           6           3           1           1           1
           3           1           1           1           3           1
           1           1           3           1           1           1
           3           1           1           1           3           1
           1           1           3           1           1           1
Shell to atom map                          I   N=          54
           1           1           1           1           1           2
           2           2           2           2           3           3
           3           3           3           4           4           4
           4           4           5           5           5           5
           5           6           6           6           6           6
           7           7           7           7           8           8
           8           8           9           9           9           9
          10          10          10          10          11          11
          11          11          12          12          12          12
Primitive exponents                        R   N=         108
  3.04752488E+03  4.57369518E+02  1.03948685E+02  2.92101553E+01  9.28666296E+00
  3.16392696E+00  7.86827235E+00  1.88128854E+00  5.44249258E-01  1.68714478E-01
  4.38000000E-02  8.00000000E-01  5.48467166E+03  8.25234946E+02  1.88046958E+02
  5.29645000E+01  1.68975704E+01  5.79963534E+00  1.55396162E+01  3.59993359E+00
  1.01376175E+00  2.70005823E-01  8.45000000E-02  8.00000000E-01  3.04752488E+03
  4.57369518E+02  1.03948685E+02  2.92101553E+01  9.28666296E+00  3.16392696E+00
  7.86827235E+00  1.88128854E+00  5.44249258E-01  1.68714478E-01  4.38000000E-02
  8.00000000E-01  5.48467166E+03  8.25234946E+02  1.88046958E+02  5.29645000E+01
  1.68975704E+01  5.79963534E+00  1.55396162E+01  3.59993359E+00  1.01376175E+00
  2.70005823E-01  8.45000000E-02  8.00000000E-01  5.48467166E+03  8.25234946E+02
  1.88046958E+02  5.29645000E+01  1.68975704E+01  5.79963534E+00  1.55396162E+01
  3.59993359E+00  1.01376175E+00  2.70005823E-01  8.45000000E-02  8.00000000E-01
  3.04752488E+03  4.57369518E+02  1.03948685E+02  2.92101553E+01  9.28666296E+00
  3.16392696E+00  7.86827235E+00  1.88128854E+00  5.44249258E-01  1.68714478E-01
  4.38000000E-02  8.00000000E-01  1.87311370E+01  2.82539436E+00  6.40121692E-01
  1.61277759E-01  3.60000000E-02  1.10000000E+00  1.87311370E+01  2.82539436E+00
  6.40121692E-01  1.61277759E-01  3.60000000E-02  1.10000000E+00  1.87311370E+01
  2.82539436E+00  6.40121692E-01  1.61277759E-01  3.60000000E-02  1.10000000E+00
  1.87311370E+01  2.82539436E+00  6.40121692E-01  1.61277759E-01  3.60000000E-02
  1.10000000E+00  1.87311370E+01  2.82539436E+00  6.40121692E-01  1.61277759E-01
  3.60000000E-02  1.10000000E+00  1.87311370E+01  2.82539436E+00  6.40121692E-01
  1.61277759E-01  3.60000000E-02  1.10000000E+00
Contraction coefficients                   R   N=         108
  1.83473713E-03  1.40373228E-02  6.88426223E-02  2.32184443E-01  4.67941348E-01
  3.62311985E-01 -1.19332420E-01 -1.60854152E-01  1.14345644E+00  1.00000000E+00
  1.00000000E+00  1.00000000E+00  1.83107443E-03  1.39501722E-02  6.84450781E-02
  2.32714336E-01  4.70192898E-01  3.58520853E-01 -1.10777550E-01 -1.48026263E-01
  1.13076702E+00  1.00000000E+00  1.00000000E+00  1.00000000E+00  1.83473713E-03
  1.40373228E-02  6.88426223E-02  2.32184443E-01  4.67941348E-01  3.62311985E-01
 -1.19332420E-01 -1.60854152E-01  1.14345644E+00  1.00000000E+00  1.00000000E+00
  1.00000000E+00  1.83107443E-03  1.39501722E-02  6.84450781E-02  2.32714336E-01
  4.70192898E-01  3.58520853E-01 -1.10777550E-01 -1.48026263E-01  1.13076702E+00
  1.00000000E+00  1.00000000E+00  1.00000000E+00  1.83107443E-03  1.39501722E-02
  6.84450781E-02  2.32714336E-01  4.70192898E-01  3.58520853E-01 -1.10777550E-01
 -1.48026263E-01  1.13076702E+00  1.00000000E+00  1.00000000E+00  1.00000000E+00
  1.83473713E-03  1.40373228E-02  6.88426223E-02  2.32184443E-01  4.67941348E-01
  3.62311985E-01 -1.19332420E-01 -1.60854152E-01  1.14345644E+00  1.00000000E+00
  1.00000000E+00  1.00000000E+00  3.34946043E-02  2.34726953E-01  8.13757326E-01
  1.00000000E+00  1.00000000E+00  1.00000000E+00  3.34946043E-02  2.34726953E-01
  8.13757326E-01  1.00000000E+00  1.00000000E+00  1.00000000E+00  3.34946043E-02
  2.34726953E-01  8.13757326E-01  1.00000000E+00  1.00000000E+00  1.00000000E+00
  3.34946043E-02  2.34726953E-01  8.13757326E-01  1.00000000E+00  1.00000000E+00
  1.00000000E+00  3.34946043E-02  2.34726953E-01  8.13757326E-01  1.00000000E+00
  1.00000000E+00  1.00000000E+00  3.34946043E-02  2.34726953E-01  8.13757326E-01
  1.00000000E+00  1.00000000E+00  1.00000000E+00
P(S=P) Contraction coefficients            R   N=         108
  0.00000000E+00  0.00000000E+00  0.00000000E+00  0.00000000E+00  0.00000000E+00
  0.00000000E+00  6.89990666E-02  3.16423961E-01  7.44308291E-01  1.00000000E+00
  1.00000000E+00  0.00000000E+00  0.00000000E+00  0.00000000E+00  0.00000000E+00
  0.00000000E+00  0.00000000E+00  0.00000000E+00  7.08742682E-02  3.39752839E-01
  7.27158577E-01  1.00000000E+00  1.00000000E+00  0.00000000E+00  0.00000000E+00
  0.00000000E+00  0.00000000E+00  0.00000000E+00  0.00000000E+00  0.00000000E+00
  6.89990666E-02  3.16423961E-01  7.44308291E-01  1.00000000E+00  1.00000000E+00
  0.00000000E+00  0.00000000E+00  0.00000000E+00  0.00000000E+00  0.00000000E+00
  0.00000000E+00  0.00000000E+00  7.08742682E-02  3.39752839E-01  7.27158577E-01
  1.00000000E+00  1.00000000E+00  0.00000000E+00  0.00000000E+00  0.00000000E+00
  0.00000000E+00  0.00000000E+00  0.00000000E+00  0.00000000E+00  7.08742682E-02
  3.39752839E-01  7.27158577E-01  1.00000000E+00  1.00000000E+00  0.00000000E+00
  0.00000000E+00  0.00000000E+00  0.00000000E+00  0.00000000E+00  0.00000000E+00
  0.00000000E+00  6.89990666E-02  3.16423961E-01  7.44308291E-01  1.00000000E+00
  1.00000000E+00  0.00000000E+00  0.00000000E+00  0.00000000E+00  0.00000000E+00
  0.00000000E+00  0.00000000E+00  0.00000000E+00  0.00000000E+00  0.00000000E+00
  0.00000000E+00  0.00000000E+00  0.00000000E+00  0.00000000E+00  0.00000000E+00
  0.00000000E+00  0.00000000E+00  0.00000000E+00  0.00000000E+00  0.00000000E+00
  0.00000000E+00  0.00000000E+00  0.00000000E+00  0.00000000E+00  0.00000000E+00
  0.00000000E+00  0.00000000E+00  0.00000000E+00  0.00000000E+00  0.00000000E+00
  0.00000000E+00  0.00000000E+00  0.00000000E+00  0.00000000E+00  0.00000000E+00
  0.00000000E+00  0.00000000E+00  0.00000000E+00
Coordinates of each shell                  R   N=         162
 -4.44834488E+00 -3.62747217E-02 -2.39547939E-05 -4.44834488E+00 -3.62747217E-02
 -2.39547939E-05 -4.44834488E+00 -3.62747217E-02 -2.39547939E-05 -4.44834488E+00
 -3.62747217E-02 -2.39547939E-05 -4.44834488E+00 -3.62747217E-02 -2.39547939E-05
 -2.04748687E+00 -1.33919967E+00  9.53570078E-06 -2.04748687E+00 -1.33919967E+00
  9.53570078E-06 -2.04748687E+00 -1.33919967E+00  9.53570078E-06 -2.04748687E+00
 -1.33919967E+00  9.53570078E-06 -2.04748687E+00 -1.33919967E+00  9.53570078E-06
 -2.08278308E-18  1.40215586E-01  4.46208298E-05 -2.08278308E-18  1.40215586E-01
  4.46208298E-05 -2.08278308E-18  1.40215586E-01  4.46208298E-05 -2.08278308E-18
  1.40215586E-01  4.46208298E-05 -2.08278308E-18  1.40215586E-01  4.46208298E-05
 -2.86401693E-17  2.44229576E+00  7.37799846E-06 -2.86401693E-17  2.44229576E+00
  7.37799846E-06 -2.86401693E-17  2.44229576E+00  7.37799846E-06 -2.86401693E-17
  2.44229576E+00  7.37799846E-06 -2.86401693E-17  2.44229576E+00  7.37799846E-06
  2.04748687E+00 -1.33919966E+00  9.70525822E-06  2.04748687E+00 -1.33919966E+00
  9.70525822E-06  2.04748687E+00 -1.33919966E+00  9.70525822E-06  2.04748687E+00
 -1.33919966E+00  9.70525822E-06  2.04748687E+00 -1.33919966E+00  9.70525822E-06
  4.44834489E+00 -3.62747283E-02 -2.40295250E-05  4.44834489E+00 -3.62747283E-02
 -2.40295250E-05  4.44834489E+00 -3.62747283E-02 -2.40295250E-05  4.44834489E+00
 -3.62747283E-02 -2.40295250E-05  4.44834489E+00 -3.62747283E-02 -2.40295250E-05
 -4.62322096E+00  1.13361605E+00  1.68968793E+00 -4.62322096E+00  1.13361605E+00
  1.68968793E+00 -4.62322096E+00  1.13361605E+00  1.68968793E+00 -4.62322096E+00
  1.13361605E+00  1.68968793E+00 -5.86633146E+00 -1.52582271E+00 -4.76787346E-05
 -5.86633146E+00 -1.52582271E+00 -4.76787346E-05 -5.86633146E+00 -1.52582271E+00
 -4.76787346E-05 -5.86633146E+00 -1.52582271E+00 -4.76787346E-05 -4.62317163E+00
  1.13362253E+00 -1.68973645E+00 -4.62317163E+00  1.13362253E+00 -1.68973645E+00
 -4.62317163E+00  1.13362253E+00 -1.68973645E+00 -4.62317163E+00  1.13362253E+00
 -1.68973645E+00  4.62316862E+00  1.13362814E+00 -1.68973291E+00  4.62316862E+00
  1.13362814E+00 -1.68973291E+00  4.62316862E+00  1.13362814E+00 -1.68973291E+00
  4.62316862E+00  1.13362814E+00 -1.68973291E+00  5.86633146E+00 -1.52582272E+00
 -5.51077650E-05  5.86633146E+00 -1.52582272E+00 -5.51077650E-05  5.86633146E+00
 -1.52582272E+00 -5.51077650E-05  5.86633146E+00 -1.52582272E+00 -5.51077650E-05
  4.62322398E+00  1.13361045E+00  1.68969145E+00  4.62322398E+00  1.13361045E+00
  1.68969145E+00  4.62322398E+00  1.13361045E+00  1.68969145E+00  4.62322398E+00
  1.13361045E+00  1.68969145E+00
Num ILSW                                   I              100
ILSW                                       I   N=         100
           0           1           0           0           2           0
           0           0           0           0         402          -1
           5           0           0           0           2           0
           0           0           1           0           1           0
           1           0           0           0           0           0
           0           0      100000           0          -1           0
           0           0           0           0           0           0
           0           0           0           1           0           0
           0 -2000000000           1           0           0           0
           0           0         141          52           0           0
           0           0           5           0           0           0
           0           0           0           0           0           1
           0           0           0           0           0           0
           0           0           0           0           0           0
           0           0           0           0           0           0
           0           0           0           0           0           0
           0           0           0           0
Num RLSW                                   I               52
RLSW                                       R   N=          52
  8.00000000E-01  7.20000000E-01  1.00000000E+00  8.10000000E-01  2.00000000E-01
  0.00000000E+00  0.00000000E+00  1.00000000E+00  0.00000000E+00  0.00000000E+00
  0.00000000E+00  0.00000000E+00  1.00000000E+00  0.00000000E+00  0.00000000E+00
  0.00000000E+00  0.00000000E+00  1.00000000E+00  0.00000000E+00  0.00000000E+00
  0.00000000E+00  0.00000000E+00  1.00000000E+00  0.00000000E+00  0.00000000E+00
  0.00000000E+00  0.00000000E+00  1.00000000E+00  0.00000000E+00  0.00000000E+00
  0.00000000E+00  0.00000000E+00  1.00000000E+00  0.00000000E+00  0.00000000E+00
  0.00000000E+00  0.00000000E+00  0.00000000E+00  1.00000000E+00  1.00000000E+00
  0.00000000E+00  1.00000000E+00  0.00000000E+00  0.00000000E+00  0.00000000E+00
  0.00000000E+00  0.00000000E+00  0.00000000E+00  0.00000000E+00  0.00000000E+00
  0.00000000E+00  0.00000000E+00
MxBond                                     I                4
NBond                                      I   N=          12
           4           2           3           1           2           4
           1           1           1           1           1           1
IBond                                      I   N=          48
           2           7           8           9           1           3
           0           0           2           4           5           0
           3           0           0           0           3           6
           0           0           5          10          11          12
           1           0           0           0           1           0
           0           0           1           0           0           0
           6           0           0           0           6           0
           0           0           6           0           0           0
RBond                                      R   N=          48
  1.00000000E+00  1.00000000E+00  1.00000000E+00  1.00000000E+00  1.00000000E+00
  1.50000000E+00  0.00000000E+00  0.00000000E+00  1.50000000E+00  2.00000000E+00
  1.50000000E+00  0.00000000E+00  2.00000000E+00  0.00000000E+00  0.00000000E+00
  0.00000000E+00  1.50000000E+00  1.00000000E+00  0.00000000E+00  0.00000000E+00
  1.00000000E+00  1.00000000E+00  1.00000000E+00  1.00000000E+00  1.00000000E+00
  0.00000000E+00  0.00000000E+00  0.00000000E+00  1.00000000E+00  0.00000000E+00
  0.00000000E+00  0.00000000E+00  1.00000000E+00  0.00000000E+00  0.00000000E+00
  0.00000000E+00  1.00000000E+00  0.00000000E+00  0.00000000E+00  0.00000000E+00
  1.00000000E+00  0.00000000E+00  0.00000000E+00  0.00000000E+00  1.00000000E+00
  0.00000000E+00  0.00000000E+00  0.00000000E+00
Virial Ratio                               R      2.009207102588776E+00
SCF Energy                                 R     -3.436507875381172E+02
Total Energy                               R     -3.436507875381172E+02
RMS Force                                  R      3.959780160010055E-05
RMS Density                                R      2.635698934154000E-09
NImag                                      I                0
Job Status                                 I                1
Nuclear derivative order                   I                2
PCM-NSphere                                I               12
PCM-NGenSphere                             I               12
PCM-NOrd                                   I   N=          12
           1           2           3           4           5           6
           7           8           9          10          11          12
PCM-SphereRadii                            R   N=          12
  4.00253442E+00  3.63772279E+00  4.00253442E+00  3.63772279E+00  3.63772279E+00
  4.00253442E+00  2.99956228E+00  2.99956228E+00  2.99956228E+00  2.99956228E+00
  2.99956228E+00  2.99956228E+00
PCM-SphereLoc                              R   N=          36
 -4.44834488E+00 -3.62747217E-02 -2.39547939E-05 -2.04748687E+00 -1.33919967E+00
  9.53570078E-06 -5.55223003E-18  1.40215586E-01  4.46208298E-05 -2.86401693E-17
  2.44229576E+00  7.37799846E-06  2.04748687E+00 -1.33919966E+00  9.70525822E-06
  4.44834489E+00 -3.62747283E-02 -2.40295250E-05 -4.62322096E+00  1.13361605E+00
  1.68968793E+00 -5.86633146E+00 -1.52582271E+00 -4.76787346E-05 -4.62317163E+00
  1.13362253E+00 -1.68973645E+00  4.62316862E+00  1.13362814E+00 -1.68973291E+00
  5.86633146E+00 -1.52582272E+00 -5.51077650E-05  4.62322398E+00  1.13361045E+00
  1.68969145E+00
External E-field                           R   N=          35
  0.00000000E+00  0.00000000E+00  0.00000000E+00  0.00000000E+00  0.00000000E+00
  0.00000000E+00  0.00000000E+00  0.00000000E+00  0.00000000E+00  0.00000000E+00
  0.00000000E+00  0.00000000E+00  0.00000000E+00  0.00000000E+00  0.00000000E+00
  0.00000000E+00  0.00000000E+00  0.00000000E+00  0.00000000E+00  0.00000000E+00
  0.00000000E+00  0.00000000E+00  0.00000000E+00  0.00000000E+00  0.00000000E+00
  0.00000000E+00  0.00000000E+00  0.00000000E+00  0.00000000E+00  0.00000000E+00
  0.00000000E+00  0.00000000E+00  0.00000000E+00  0.00000000E+00  0.00000000E+00
IOpCl                                      I                0
IROHF                                      I                0
Alpha Orbital Energies                     R   N=         150
 -1.92174104E+01 -1.92174067E+01 -1.91604096E+01 -1.03783756E+01 -1.02492275E+01
 -1.02492251E+01 -1.15885644E+00 -1.07100406E+00 -1.03611646E+00 -7.68672891E-01
 -7.05538400E-01 -5.88954005E-01 -5.56842169E-01 -5.19321136E-01 -5.07852578E-01
 -4.66875980E-01 -4.55925578E-01 -4.43727124E-01 -4.10982944E-01 -3.88123741E-01
 -3.72831085E-01 -3.27023871E-01 -3.20189697E-01 -3.09055988E-01 -7.19024635E-03
  8.93300749E-03  1.69520368E-02  2.16295324E-02  2.97083747E-02  3.23342413E-02
  4.18286744E-02  5.11383273E-02  6.79605587E-02  8.73123454E-02  9.29264368E-02
  1.13622534E-01  1.15257261E-01  1.16997703E-01  1.27430298E-01  1.29328284E-01
  1.40418644E-01  1.41354345E-01  1.48042901E-01  1.68341782E-01  1.70434833E-01
  1.88637758E-01  1.99528323E-01  2.09493638E-01  2.23295124E-01  2.35164249E-01
  2.48965925E-01  2.51195713E-01  2.52712542E-01  2.71431765E-01  2.90069863E-01
  2.90214188E-01  3.09491444E-01  3.23478417E-01  3.28757147E-01  3.49496466E-01
  3.50428460E-01  3.77952954E-01  3.84235083E-01  4.10794407E-01  4.64451450E-01
  5.24076390E-01  6.90574588E-01  7.01088797E-01  7.06796195E-01  7.15727500E-01
  7.23227151E-01  7.29519748E-01  7.50441583E-01  7.81879601E-01  8.48783729E-01