EC_B3LYP_6-31ppgd,p_pcm_Water                                           
Freq      RB3LYP                                                      6-31++G(d,p)        
Number of atoms                            I               10
Info1-9                                    I   N=           9
          19          19        1002           0           0         100
           6          18        -502
Full Title                                 C   N=           3
EC_B3LYP_6-31ppgd,p_pcm_Water       
Route                                      C   N=           6
# opt freq B3LYP/6-31++g(d,p) em=gd3bj scrf=(pcm,solvent=Wat
er)         
Charge                                     I                0
Multiplicity                               I                1
Number of electrons                        I               46
Number of alpha electrons                  I               23
Number of beta electrons                   I               23
Number of basis functions                  I              138
Number of independent functions            I              138
Number of point charges in /Mol/           I                0
Number of translation vectors              I                0
Atomic numbers                             I   N=          10
           6           6           8           6           8           8
           1           1           1           1
Nuclear charges                            R   N=          10
  6.00000000E+00  6.00000000E+00  8.00000000E+00  6.00000000E+00  8.00000000E+00
  8.00000000E+00  1.00000000E+00  1.00000000E+00  1.00000000E+00  1.00000000E+00
Current cartesian coordinates              R   N=          30
  1.47872038E-16 -1.44637514E+00 -2.48036487E+00 -4.82499103E-17  1.44637514E+00
 -2.48036487E+00  4.89389102E-01  2.04579278E+00  1.53133003E-01  1.43052827E-17
  9.28819521E-18  1.58986985E+00  8.75005705E-18 -1.10109493E-16  3.87447069E+00
 -4.89389102E-01 -2.04579278E+00  1.53133003E-01  1.82915286E+00 -2.25411584E+00
 -2.98920490E+00 -1.49778928E+00 -2.27519953E+00 -3.62116223E+00 -1.82915286E+00
  2.25411584E+00 -2.98920490E+00  1.49778928E+00  2.27519953E+00 -3.62116223E+00
Number of symbols in /Mol/                 I                0
Force Field                                I                0
Atom Types                                 C   N=          10
                                                            
                                                            
Int Atom Types                             I   N=          10
           0           0           0           0           0           0
           0           0           0           0
MM charges                                 R   N=          10
  0.00000000E+00  0.00000000E+00  0.00000000E+00  0.00000000E+00  0.00000000E+00
  0.00000000E+00  0.00000000E+00  0.00000000E+00  0.00000000E+00  0.00000000E+00
Integer atomic weights                     I   N=          10
          12          12          16          12          16          16
           1           1           1           1
Real atomic weights                        R   N=          10
  1.20000000E+01  1.20000000E+01  1.59949146E+01  1.20000000E+01  1.59949146E+01
  1.59949146E+01  1.00782504E+00  1.00782504E+00  1.00782504E+00  1.00782504E+00
Atom fragment info                         I   N=          10
           0           0           0           0           0           0
           0           0           0           0
Atom residue num                           I   N=          10
           0           0           0           0           0           0
           0           0           0           0
Nuclear spins                              I   N=          10
           0           0           0           0           0           0
           1           1           1           1
Nuclear ZEff                               R   N=          10
 -3.60000000E+00 -3.60000000E+00 -5.60000000E+00 -3.60000000E+00 -5.60000000E+00
 -5.60000000E+00 -1.00000000E+00 -1.00000000E+00 -1.00000000E+00 -1.00000000E+00
Nuclear ZNuc                               R   N=          10
  6.00000000E+00  6.00000000E+00  8.00000000E+00  6.00000000E+00  8.00000000E+00
  8.00000000E+00  1.00000000E+00  1.00000000E+00  1.00000000E+00  1.00000000E+00
Nuclear QMom                               R   N=          10
  0.00000000E+00  0.00000000E+00  0.00000000E+00  0.00000000E+00  0.00000000E+00
  0.00000000E+00  0.00000000E+00  0.00000000E+00  0.00000000E+00  0.00000000E+00
Nuclear GFac                               R   N=          10
  0.00000000E+00  0.00000000E+00  0.00000000E+00  0.00000000E+00  0.00000000E+00
  0.00000000E+00  2.79284600E+00  2.79284600E+00  2.79284600E+00  2.79284600E+00
MicOpt                                     I   N=          10
          -1          -1          -1          -1          -1          -1
          -1          -1          -1          -1
Number of residues                         I                0
Number of secondary structures             I                0
Redundant internal dimensions              I   N=           4
          46          10          17          19
Redundant internal coordinate indices      I   N=         184
           1           2           0           0           1           6
           0           0           1           7           0           0
           1           8           0           0           2           3
           0           0           2           9           0           0
           2          10           0           0           3           4
           0           0           4           5           0           0
           4           6           0           0           2           1
           6           0           2           1           7           0
           2           1           8           0           6           1
           7           0           6           1           8           0
           7           1           8           0           1           2
           3           0           1           2           9           0
           1           2          10           0           3           2
           9           0           3           2          10           0
           9           2          10           0           2           3
           4           0           3           4           5           0
           3           4           6           0           5           4
           6           0           1           6           4           0
           6           1           2           3           6           1
           2           9           6           1           2          10
           7           1           2           3           7           1
           2           9           7           1           2          10
           8           1           2           3           8           1
           2           9           8           1           2          10
           2           1           6           4           7           1
           6           4           8           1           6           4
           1           2           3           4           9           2
           3           4          10           2           3           4
           2           3           4           5           2           3
           4           6           3           4           6           1
           5           4           6           1
Redundant internal coordinates             R   N=          46
  2.89275029E+00  2.74483410E+00  2.06328946E+00  2.05711964E+00  2.74483410E+00
  2.06328946E+00  2.05711964E+00  2.54734814E+00  2.28460084E+00  2.54734814E+00
  1.79095071E+00  1.97303792E+00  1.98548531E+00  1.88513006E+00  1.89047706E+00
  1.92941778E+00  1.79095071E+00  1.97303792E+00  1.98548531E+00  1.88513006E+00
  1.89047706E+00  1.92941778E+00  1.90868838E+00  2.17003354E+00  1.94311822E+00
  2.17003354E+00  1.90868838E+00  3.67472906E-01 -1.65838329E+00  2.40545089E+00
 -1.65838329E+00  2.59894583E+00  3.79594699E-01  2.40545089E+00  3.79594699E-01
 -1.83975643E+00 -3.14590785E-01  1.77356575E+00 -2.41939124E+00 -3.14590785E-01
  1.77356575E+00 -2.41939124E+00 -3.01128132E+00  1.30311333E-01  1.30311333E-01
 -3.01128132E+00
ZRed-IntVec                                I   N=          46
           0           0           0           0           0           0
           0           0           0           0           0           0
           0           0           0           0           0           0
           0           0           0           0           0           0
           0           0           0           0           0           0
           0           0           0           0           0           0
           0           0           0           0           0           0
           0           0           0           0
ZRed-FPVec                                 R   N=          46
  0.00000000E+00  0.00000000E+00  0.00000000E+00  0.00000000E+00  0.00000000E+00
  0.00000000E+00  0.00000000E+00  0.00000000E+00  0.00000000E+00  0.00000000E+00
  0.00000000E+00  0.00000000E+00  0.00000000E+00  0.00000000E+00  0.00000000E+00
  0.00000000E+00  0.00000000E+00  0.00000000E+00  0.00000000E+00  0.00000000E+00
  0.00000000E+00  0.00000000E+00  0.00000000E+00  0.00000000E+00  0.00000000E+00
  0.00000000E+00  0.00000000E+00  0.00000000E+00  0.00000000E+00  0.00000000E+00
  0.00000000E+00  0.00000000E+00  0.00000000E+00  0.00000000E+00  0.00000000E+00
  0.00000000E+00  0.00000000E+00  0.00000000E+00  0.00000000E+00  0.00000000E+00
  0.00000000E+00  0.00000000E+00  0.00000000E+00  0.00000000E+00  0.00000000E+00
  0.00000000E+00
ZRed-Constraint1                           R   N=          46
  2.89275029E+00  2.74483410E+00  2.06328946E+00  2.05711964E+00  2.74483410E+00
  2.06328946E+00  2.05711964E+00  2.54734814E+00  2.28460084E+00  2.54734814E+00
  1.79095071E+00  1.97303792E+00  1.98548531E+00  1.88513006E+00  1.89047706E+00
  1.92941778E+00  1.79095071E+00  1.97303792E+00  1.98548531E+00  1.88513006E+00
  1.89047706E+00  1.92941778E+00  1.90868838E+00  2.17003354E+00  1.94311822E+00
  2.17003354E+00  1.90868838E+00  3.67472906E-01 -1.65838329E+00  2.40545089E+00
 -1.65838329E+00  2.59894583E+00  3.79594699E-01  2.40545089E+00  3.79594699E-01
 -1.83975643E+00 -3.14590785E-01  1.77356575E+00 -2.41939124E+00 -3.14590785E-01
  1.77356575E+00 -2.41939124E+00 -3.01128132E+00  1.30311333E-01  1.30311333E-01
 -3.01128132E+00
ZRed-Constraint2                           R   N=          46
  2.82297138E+00  2.67409075E+00  2.06974933E+00  2.06603654E+00  2.67409075E+00
  2.06974940E+00  2.06603685E+00  2.58280617E+00  2.30312557E+00  2.58280646E+00
  1.79495204E+00  1.96326189E+00  1.96455096E+00  1.89557952E+00  1.93791445E+00
  1.90470556E+00  1.79495214E+00  1.96326206E+00  1.96455069E+00  1.89557966E+00
  1.93791445E+00  1.90470544E+00  1.85883756E+00  2.17236829E+00  1.93844859E+00
  2.17236842E+00  1.85883754E+00  5.55302013E-01 -1.48068887E+00  2.64204735E+00
 -1.48068856E+00  2.76650587E+00  6.06056783E-01  2.64204743E+00  6.06056551E-01
 -1.55439254E+00 -4.54830138E-01  1.62884336E+00 -2.55996112E+00 -4.54830082E-01
  1.62884373E+00 -2.55996080E+00 -2.95577055E+00  1.85821729E-01  1.85821879E-01
 -2.95577115E+00
SymInf integers                            I   N=          26
           2           2           1           1           1          -1
          -1           1           0           0           0           0
           0           0           0           0           0           0
           0           0           0           0           0           0
           0           0
RotTr to input orientation                 R   N=          12
 -6.83595264E-03  2.86411985E-02  9.99566382E-01 -1.17024150E-01 -9.92744217E-01
  2.76454002E-02  9.93105542E-01 -1.16784424E-01  1.01380644E-02  1.23252909E+00
 -1.44939363E-01  1.25821753E-02
Number of contracted shells                I               46
Number of primitive shells                 I               96
Pure/Cartesian d shells                    I                1
Pure/Cartesian f shells                    I                0
Highest angular momentum                   I                2
Largest degree of contraction              I                6
Shell types                                I   N=          46
           0          -1          -1          -1           2           0
          -1          -1          -1           2           0          -1
          -1          -1           2           0          -1          -1
          -1           2           0          -1          -1          -1
           2           0          -1          -1          -1           2
           0           0           0           1           0           0
           0           1           0           0           0           1
           0           0           0           1
Number of primitives per shell             I   N=          46
           6           3           1           1           1           6
           3           1           1           1           6           3
           1           1           1           6           3           1
           1           1           6           3           1           1
           1           6           3           1           1           1
           3           1           1           1           3           1
           1           1           3           1           1           1
           3           1           1           1
Shell to atom map                          I   N=          46
           1           1           1           1           1           2
           2           2           2           2           3           3
           3           3           3           4           4           4
           4           4           5           5           5           5
           5           6           6           6           6           6
           7           7           7           7           8           8
           8           8           9           9           9           9
          10          10          10          10
Primitive exponents                        R   N=          96
  3.04752488E+03  4.57369518E+02  1.03948685E+02  2.92101553E+01  9.28666296E+00
  3.16392696E+00  7.86827235E+00  1.88128854E+00  5.44249258E-01  1.68714478E-01
  4.38000000E-02  8.00000000E-01  3.04752488E+03  4.57369518E+02  1.03948685E+02
  2.92101553E+01  9.28666296E+00  3.16392696E+00  7.86827235E+00  1.88128854E+00
  5.44249258E-01  1.68714478E-01  4.38000000E-02  8.00000000E-01  5.48467166E+03
  8.25234946E+02  1.88046958E+02  5.29645000E+01  1.68975704E+01  5.79963534E+00
  1.55396162E+01  3.59993359E+00  1.01376175E+00  2.70005823E-01  8.45000000E-02
  8.00000000E-01  3.04752488E+03  4.57369518E+02  1.03948685E+02  2.92101553E+01
  9.28666296E+00  3.16392696E+00  7.86827235E+00  1.88128854E+00  5.44249258E-01
  1.68714478E-01  4.38000000E-02  8.00000000E-01  5.48467166E+03  8.25234946E+02
  1.88046958E+02  5.29645000E+01  1.68975704E+01  5.79963534E+00  1.55396162E+01
  3.59993359E+00  1.01376175E+00  2.70005823E-01  8.45000000E-02  8.00000000E-01
  5.48467166E+03  8.25234946E+02  1.88046958E+02  5.29645000E+01  1.68975704E+01
  5.79963534E+00  1.55396162E+01  3.59993359E+00  1.01376175E+00  2.70005823E-01
  8.45000000E-02  8.00000000E-01  1.87311370E+01  2.82539436E+00  6.40121692E-01
  1.61277759E-01  3.60000000E-02  1.10000000E+00  1.87311370E+01  2.82539436E+00
  6.40121692E-01  1.61277759E-01  3.60000000E-02  1.10000000E+00  1.87311370E+01
  2.82539436E+00  6.40121692E-01  1.61277759E-01  3.60000000E-02  1.10000000E+00
  1.87311370E+01  2.82539436E+00  6.40121692E-01  1.61277759E-01  3.60000000E-02
  1.10000000E+00
Contraction coefficients                   R   N=          96
  1.83473713E-03  1.40373228E-02  6.88426223E-02  2.32184443E-01  4.67941348E-01
  3.62311985E-01 -1.19332420E-01 -1.60854152E-01  1.14345644E+00  1.00000000E+00
  1.00000000E+00  1.00000000E+00  1.83473713E-03  1.40373228E-02  6.88426223E-02
  2.32184443E-01  4.67941348E-01  3.62311985E-01 -1.19332420E-01 -1.60854152E-01
  1.14345644E+00  1.00000000E+00  1.00000000E+00  1.00000000E+00  1.83107443E-03
  1.39501722E-02  6.84450781E-02  2.32714336E-01  4.70192898E-01  3.58520853E-01
 -1.10777550E-01 -1.48026263E-01  1.13076702E+00  1.00000000E+00  1.00000000E+00
  1.00000000E+00  1.83473713E-03  1.40373228E-02  6.88426223E-02  2.32184443E-01
  4.67941348E-01  3.62311985E-01 -1.19332420E-01 -1.60854152E-01  1.14345644E+00
  1.00000000E+00  1.00000000E+00  1.00000000E+00  1.83107443E-03  1.39501722E-02
  6.84450781E-02  2.32714336E-01  4.70192898E-01  3.58520853E-01 -1.10777550E-01
 -1.48026263E-01  1.13076702E+00  1.00000000E+00  1.00000000E+00  1.00000000E+00
  1.83107443E-03  1.39501722E-02  6.84450781E-02  2.32714336E-01  4.70192898E-01
  3.58520853E-01 -1.10777550E-01 -1.48026263E-01  1.13076702E+00  1.00000000E+00
  1.00000000E+00  1.00000000E+00  3.34946043E-02  2.34726953E-01  8.13757326E-01
  1.00000000E+00  1.00000000E+00  1.00000000E+00  3.34946043E-02  2.34726953E-01
  8.13757326E-01  1.00000000E+00  1.00000000E+00  1.00000000E+00  3.34946043E-02
  2.34726953E-01  8.13757326E-01  1.00000000E+00  1.00000000E+00  1.00000000E+00
  3.34946043E-02  2.34726953E-01  8.13757326E-01  1.00000000E+00  1.00000000E+00
  1.00000000E+00
P(S=P) Contraction coefficients            R   N=          96
  0.00000000E+00  0.00000000E+00  0.00000000E+00  0.00000000E+00  0.00000000E+00
  0.00000000E+00  6.89990666E-02  3.16423961E-01  7.44308291E-01  1.00000000E+00
  1.00000000E+00  0.00000000E+00  0.00000000E+00  0.00000000E+00  0.00000000E+00
  0.00000000E+00  0.00000000E+00  0.00000000E+00  6.89990666E-02  3.16423961E-01
  7.44308291E-01  1.00000000E+00  1.00000000E+00  0.00000000E+00  0.00000000E+00
  0.00000000E+00  0.00000000E+00  0.00000000E+00  0.00000000E+00  0.00000000E+00
  7.08742682E-02  3.39752839E-01  7.27158577E-01  1.00000000E+00  1.00000000E+00
  0.00000000E+00  0.00000000E+00  0.00000000E+00  0.00000000E+00  0.00000000E+00
  0.00000000E+00  0.00000000E+00  6.89990666E-02  3.16423961E-01  7.44308291E-01
  1.00000000E+00  1.00000000E+00  0.00000000E+00  0.00000000E+00  0.00000000E+00
  0.00000000E+00  0.00000000E+00  0.00000000E+00  0.00000000E+00  7.08742682E-02
  3.39752839E-01  7.27158577E-01  1.00000000E+00  1.00000000E+00  0.00000000E+00
  0.00000000E+00  0.00000000E+00  0.00000000E+00  0.00000000E+00  0.00000000E+00
  0.00000000E+00  7.08742682E-02  3.39752839E-01  7.27158577E-01  1.00000000E+00
  1.00000000E+00  0.00000000E+00  0.00000000E+00  0.00000000E+00  0.00000000E+00
  0.00000000E+00  0.00000000E+00  0.00000000E+00  0.00000000E+00  0.00000000E+00
  0.00000000E+00  0.00000000E+00  0.00000000E+00  0.00000000E+00  0.00000000E+00
  0.00000000E+00  0.00000000E+00  0.00000000E+00  0.00000000E+00  0.00000000E+00
  0.00000000E+00  0.00000000E+00  0.00000000E+00  0.00000000E+00  0.00000000E+00
  0.00000000E+00
Coordinates of each shell                  R   N=         138
  1.20134515E-16 -1.44637514E+00 -2.48036487E+00  1.20134515E-16 -1.44637514E+00
 -2.48036487E+00  1.20134515E-16 -1.44637514E+00 -2.48036487E+00  1.20134515E-16
 -1.44637514E+00 -2.48036487E+00  1.20134515E-16 -1.44637514E+00 -2.48036487E+00
 -2.22441023E-17  1.44637514E+00 -2.48036487E+00 -2.22441023E-17  1.44637514E+00
 -2.48036487E+00 -2.22441023E-17  1.44637514E+00 -2.48036487E+00 -2.22441023E-17
  1.44637514E+00 -2.48036487E+00 -2.22441023E-17  1.44637514E+00 -2.48036487E+00
  4.89389102E-01  2.04579278E+00  1.53133003E-01  4.89389102E-01  2.04579278E+00
  1.53133003E-01  4.89389102E-01  2.04579278E+00  1.53133003E-01  4.89389102E-01
  2.04579278E+00  1.53133003E-01  4.89389102E-01  2.04579278E+00  1.53133003E-01
  7.36939764E-18  9.09636672E-18  1.58986985E+00  7.36939764E-18  9.09636672E-18
  1.58986985E+00  7.36939764E-18  9.09636672E-18  1.58986985E+00  7.36939764E-18
  9.09636672E-18  1.58986985E+00  7.36939764E-18  9.09636672E-18  1.58986985E+00
  8.75306588E-18 -1.09433959E-16  3.87447069E+00  8.75306588E-18 -1.09433959E-16
  3.87447069E+00  8.75306588E-18 -1.09433959E-16  3.87447069E+00  8.75306588E-18
 -1.09433959E-16  3.87447069E+00  8.75306588E-18 -1.09433959E-16  3.87447069E+00
 -4.89389102E-01 -2.04579278E+00  1.53133003E-01 -4.89389102E-01 -2.04579278E+00
  1.53133003E-01 -4.89389102E-01 -2.04579278E+00  1.53133003E-01 -4.89389102E-01
 -2.04579278E+00  1.53133003E-01 -4.89389102E-01 -2.04579278E+00  1.53133003E-01
  1.82915286E+00 -2.25411584E+00 -2.98920490E+00  1.82915286E+00 -2.25411584E+00
 -2.98920490E+00  1.82915286E+00 -2.25411584E+00 -2.98920490E+00  1.82915286E+00
 -2.25411584E+00 -2.98920490E+00 -1.49778928E+00 -2.27519953E+00 -3.62116223E+00
 -1.49778928E+00 -2.27519953E+00 -3.62116223E+00 -1.49778928E+00 -2.27519953E+00
 -3.62116223E+00 -1.49778928E+00 -2.27519953E+00 -3.62116223E+00 -1.82915286E+00
  2.25411584E+00 -2.98920490E+00 -1.82915286E+00  2.25411584E+00 -2.98920490E+00
 -1.82915286E+00  2.25411584E+00 -2.98920490E+00 -1.82915286E+00  2.25411584E+00
 -2.98920490E+00  1.49778928E+00  2.27519953E+00 -3.62116223E+00  1.49778928E+00
  2.27519953E+00 -3.62116223E+00  1.49778928E+00  2.27519953E+00 -3.62116223E+00
  1.49778928E+00  2.27519953E+00 -3.62116223E+00
Num ILSW                                   I              100
ILSW                                       I   N=         100
           0           1           0           0           2           0
           0           0           0           0         402          -1
           5           0           0           0           2           0
           0           0           1           0           1           0
           1           0           0           0           0           0
           0           0      100000           0          -1           0
           0           0           0           0           0           0
           0           0           0           1           0           0
           0 -2000000000           1           0           0           0
           0           0         141          52           0           0
           0           0           5           0           0           0
           0           0           0           0           0           1
           0           0           0           0           0           0
           0           0           0           0           0           0
           0           0           0           0           0           0
           0           0           0           0           0           0
           0           0           0           0
Num RLSW                                   I               52
RLSW                                       R   N=          52
  8.00000000E-01  7.20000000E-01  1.00000000E+00  8.10000000E-01  2.00000000E-01
  0.00000000E+00  0.00000000E+00  1.00000000E+00  0.00000000E+00  0.00000000E+00
  0.00000000E+00  0.00000000E+00  1.00000000E+00  0.00000000E+00  0.00000000E+00
  0.00000000E+00  0.00000000E+00  1.00000000E+00  0.00000000E+00  0.00000000E+00
  0.00000000E+00  0.00000000E+00  1.00000000E+00  0.00000000E+00  0.00000000E+00
  0.00000000E+00  0.00000000E+00  1.00000000E+00  0.00000000E+00  0.00000000E+00
  0.00000000E+00  0.00000000E+00  1.00000000E+00  0.00000000E+00  0.00000000E+00
  0.00000000E+00  0.00000000E+00  0.00000000E+00  1.00000000E+00  1.00000000E+00
  0.00000000E+00  1.00000000E+00  0.00000000E+00  0.00000000E+00  0.00000000E+00
  0.00000000E+00  0.00000000E+00  0.00000000E+00  0.00000000E+00  0.00000000E+00
  0.00000000E+00  0.00000000E+00
MxBond                                     I                4
NBond                                      I   N=          10
           4           4           2           3           1           2
           1           1           1           1
IBond                                      I   N=          40
           2           6           7           8           1           3
           9          10           2           4           0           0
           3           5           6           0           4           0
           0           0           1           4           0           0
           1           0           0           0           1           0
           0           0           2           0           0           0
           2           0           0           0
RBond                                      R   N=          40
  1.00000000E+00  1.00000000E+00  1.00000000E+00  1.00000000E+00  1.00000000E+00
  1.00000000E+00  1.00000000E+00  1.00000000E+00  1.00000000E+00  1.50000000E+00
  0.00000000E+00  0.00000000E+00  1.50000000E+00  2.00000000E+00  1.50000000E+00
  0.00000000E+00  2.00000000E+00  0.00000000E+00  0.00000000E+00  0.00000000E+00
  1.00000000E+00  1.50000000E+00  0.00000000E+00  0.00000000E+00  1.00000000E+00
  0.00000000E+00  0.00000000E+00  0.00000000E+00  1.00000000E+00  0.00000000E+00
  0.00000000E+00  0.00000000E+00  1.00000000E+00  0.00000000E+00  0.00000000E+00
  0.00000000E+00  1.00000000E+00  0.00000000E+00  0.00000000E+00  0.00000000E+00
Virial Ratio                               R      2.009075279731678E+00
SCF Energy                                 R     -3.424442717046101E+02
Total Energy                               R     -3.424442717046101E+02
RMS Force                                  R      2.457301862845078E-05
RMS Density                                R      1.849915487976700E-09
NImag                                      I                0
Job Status                                 I                1
Nuclear derivative order                   I                2
PCM-NSphere                                I               10
PCM-NGenSphere                             I               10
PCM-NOrd                                   I   N=          10
           1           2           3           4           5           6
           7           8           9          10
PCM-SphereRadii                            R   N=          10
  4.00253442E+00  4.00253442E+00  3.63772279E+00  4.00253442E+00  3.63772279E+00
  3.63772279E+00  2.99956228E+00  2.99956228E+00  2.99956228E+00  2.99956228E+00
PCM-SphereLoc                              R   N=          30
  1.47872038E-16 -1.44637514E+00 -2.48036487E+00 -4.82499103E-17  1.44637514E+00
 -2.48036487E+00  4.89389102E-01  2.04579278E+00  1.53133003E-01  1.43052827E-17
  9.28819521E-18  1.58986985E+00  8.75005705E-18 -1.10109493E-16  3.87447069E+00
 -4.89389102E-01 -2.04579278E+00  1.53133003E-01  1.82915286E+00 -2.25411584E+00
 -2.98920490E+00 -1.49778928E+00 -2.27519953E+00 -3.62116223E+00 -1.82915286E+00
  2.25411584E+00 -2.98920490E+00  1.49778928E+00  2.27519953E+00 -3.62116223E+00
External E-field                           R   N=          35
  0.00000000E+00  0.00000000E+00  0.00000000E+00  0.00000000E+00  0.00000000E+00
  0.00000000E+00  0.00000000E+00  0.00000000E+00  0.00000000E+00  0.00000000E+00
  0.00000000E+00  0.00000000E+00  0.00000000E+00  0.00000000E+00  0.00000000E+00
  0.00000000E+00  0.00000000E+00  0.00000000E+00  0.00000000E+00  0.00000000E+00
  0.00000000E+00  0.00000000E+00  0.00000000E+00  0.00000000E+00  0.00000000E+00
  0.00000000E+00  0.00000000E+00  0.00000000E+00  0.00000000E+00  0.00000000E+00
  0.00000000E+00  0.00000000E+00  0.00000000E+00  0.00000000E+00  0.00000000E+00
IOpCl                                      I                0
IROHF                                      I                0
Alpha Orbital Energies                     R   N=         138
 -1.92272146E+01 -1.92272072E+01 -1.91651975E+01 -1.03854544E+01 -1.02705828E+01
 -1.02703642E+01 -1.17687887E+00 -1.06373394E+00 -1.05721510E+00 -7.92216887E-01
 -6.89709804E-01 -6.19528422E-01 -5.51338180E-01 -5.29961048E-01 -5.13323381E-01
 -4.61765267E-01 -4.52630665E-01 -4.47132861E-01 -3.96130974E-01 -3.89970574E-01
 -3.30281543E-01 -3.24276841E-01 -3.19366753E-01 -7.77505307E-03  9.10955959E-03
  9.65537868E-03  2.02358673E-02  2.38306200E-02  5.09346231E-02  5.73090403E-02
  6.50611358E-02  7.68496688E-02  7.70302365E-02  9.99379180E-02  1.09847758E-01
  1.21168479E-01  1.25042794E-01  1.34811946E-01  1.41618779E-01  1.47555133E-01
  1.56138965E-01  1.78981354E-01  1.92247308E-01  1.99129974E-01  2.14130507E-01
  2.28113398E-01  2.42287220E-01  2.48491896E-01  2.72286476E-01  2.72528300E-01
  2.78604918E-01  2.85669413E-01  2.98551836E-01  3.22098372E-01  3.24144073E-01
  3.38048511E-01  3.60747800E-01  3.64683928E-01  3.72647824E-01  3.81616080E-01
  3.83190449E-01  4.96091403E-01  6.39062836E-01  6.52186672E-01  6.87426316E-01
  6.92553520E-01  7.23963283E-01  7.71561561E-01  7.75668921E-01  8.61917368E-01
  8.74967264E-01  9.33354755E-01  9.73713297E-01  1.00467823E+00  1.06256418E+00
  1.06293866E+00  1.12997400E+00  1.15547602E+00  1.20322766E+00  1.21949265E+00
  1.25176249E+00  1.27670312E+00  1.28480466E+00  1.29327290E+00  1.31161458E+00
  1.34027129E+00  1.39285486E+00  1.40662617E+00  1.43787191E+00  1.50934871E+00
  1.56384592E+00  1.59645495E+00  1.64302461E+00  1.67541941E+00  1.76460814E+00
  1.78397592E+00  1.81948054E+00  1.82011538E+00  1.85444743E+00  1.89869393E+00
  1.90474891E+00  1.91955268E+00  1.93533060E+00  1.96973850E+00  1.99029156E+00
  2.02877599E+00  2.09678286E+00  2.15309452E+00  2.21066260E+00  2.23789291E+00
  2.36634756E+00  2.43271358E+00  2.44475146E+00  2.48376255E+00  2.54471761E+00
  2.55846644E+00  2.61288141E+00  2.68999372E+00  2.69429780E+00  2.77195705E+00
  2.78542742E+00  2.81832075E+00  2.83092117E+00  2.89313388E+00  2.98294675E+00
  3.08273664E+00  3.18771904E+00  3.19818391E+00  3.26169165E+00  3.32933216E+00
  3.40092817E+00  3.51622009E+00  4.13537205E+00  4.31316122E+00  4.42493037E+00
  4.52038967E+00  4.56428646E+00  4.63278921E+00
Alpha MO coefficients                      R   N=       19044
  2.95325227E-05  1.57749946E-04  3.23811169E-05  3.07458324E-05 -2.10408980E-04