tansuan                                                                 
Freq      RB3LYP                                                      6-31G(d)            
Number of atoms                            I               18
Info1-9                                    I   N=           9
          27          27        1002           0           0         100
           6          18        -502
Full Title                                 C   N=           1
tansuan     
Route                                      C   N=           3
# opt freq B3LYP/6-31G(d) em=gd3bj  
Charge                                     I                0
Multiplicity                               I                1
Number of electrons                        I               64
Number of alpha electrons                  I               32
Number of beta electrons                   I               32
Number of basis functions                  I              140
Number of independent functions            I              140
Number of point charges in /Mol/           I                0
Number of translation vectors              I                0
Atomic numbers                             I   N=          18
           6           6           8           6           8           8
           6           6           1           1           1           1
           1           1           1           1           1           1
Nuclear charges                            R   N=          18
  6.00000000E+00  6.00000000E+00  8.00000000E+00  6.00000000E+00  8.00000000E+00
  8.00000000E+00  6.00000000E+00  6.00000000E+00  1.00000000E+00  1.00000000E+00
  1.00000000E+00  1.00000000E+00  1.00000000E+00  1.00000000E+00  1.00000000E+00
  1.00000000E+00  1.00000000E+00  1.00000000E+00
Current cartesian coordinates              R   N=          54
  5.66943779E+00  1.31698781E-01  1.59305651E+00  4.51436285E+00 -6.51140474E-01
 -9.16672412E-01  1.95144705E+00 -1.54575510E+00 -5.95879812E-01  1.85042554E-01
  2.64028225E-01 -4.30738825E-01  5.38078333E-01  2.52468904E+00 -5.79694099E-01
 -2.05389081E+00 -8.65055952E-01 -7.99319234E-02 -4.17857722E+00  8.37627328E-01
  1.28693431E-01 -6.51320661E+00 -7.72383702E-01  5.27109823E-01  4.66085783E+00
  1.75696515E+00  2.37375462E+00  5.59223322E+00 -1.42700418E+00  2.95099495E+00
  7.65194073E+00  6.64237540E-01  1.32017852E+00  5.50450620E+00 -2.26352317E+00
 -1.74128503E+00  4.51122708E+00  9.14690937E-01 -2.26293023E+00 -3.84512385E+00
  2.13096207E+00  1.70795172E+00 -4.29909498E+00  1.97028695E+00 -1.59763042E+00
 -6.79944475E+00 -2.05977420E+00 -1.06592679E+00 -8.18045842E+00  4.41928616E-01
  6.96925813E-01 -6.34407584E+00 -1.89877460E+00  2.25332239E+00
Number of symbols in /Mol/                 I                0
Force Field                                I                0
Atom Types                                 C   N=          18
                                                            
                                                            
                                                            
                                    
Int Atom Types                             I   N=          18
           0           0           0           0           0           0
           0           0           0           0           0           0
           0           0           0           0           0           0
MM charges                                 R   N=          18
  0.00000000E+00  0.00000000E+00  0.00000000E+00  0.00000000E+00  0.00000000E+00
  0.00000000E+00  0.00000000E+00  0.00000000E+00  0.00000000E+00  0.00000000E+00
  0.00000000E+00  0.00000000E+00  0.00000000E+00  0.00000000E+00  0.00000000E+00
  0.00000000E+00  0.00000000E+00  0.00000000E+00
Integer atomic weights                     I   N=          18
          12          12          16          12          16          16
          12          12           1           1           1           1
           1           1           1           1           1           1
Real atomic weights                        R   N=          18
  1.20000000E+01  1.20000000E+01  1.59949146E+01  1.20000000E+01  1.59949146E+01
  1.59949146E+01  1.20000000E+01  1.20000000E+01  1.00782504E+00  1.00782504E+00
  1.00782504E+00  1.00782504E+00  1.00782504E+00  1.00782504E+00  1.00782504E+00
  1.00782504E+00  1.00782504E+00  1.00782504E+00
Atom fragment info                         I   N=          18
           0           0           0           0           0           0
           0           0           0           0           0           0
           0           0           0           0           0           0
Atom residue num                           I   N=          18
           0           0           0           0           0           0
           0           0           0           0           0           0
           0           0           0           0           0           0
Nuclear spins                              I   N=          18
           0           0           0           0           0           0
           0           0           1           1           1           1
           1           1           1           1           1           1
Nuclear ZEff                               R   N=          18
 -3.60000000E+00 -3.60000000E+00 -5.60000000E+00 -3.60000000E+00 -5.60000000E+00
 -5.60000000E+00 -3.60000000E+00 -3.60000000E+00 -1.00000000E+00 -1.00000000E+00
 -1.00000000E+00 -1.00000000E+00 -1.00000000E+00 -1.00000000E+00 -1.00000000E+00
 -1.00000000E+00 -1.00000000E+00 -1.00000000E+00
Nuclear ZNuc                               R   N=          18
  6.00000000E+00  6.00000000E+00  8.00000000E+00  6.00000000E+00  8.00000000E+00
  8.00000000E+00  6.00000000E+00  6.00000000E+00  1.00000000E+00  1.00000000E+00
  1.00000000E+00  1.00000000E+00  1.00000000E+00  1.00000000E+00  1.00000000E+00
  1.00000000E+00  1.00000000E+00  1.00000000E+00
Nuclear QMom                               R   N=          18
  0.00000000E+00  0.00000000E+00  0.00000000E+00  0.00000000E+00  0.00000000E+00
  0.00000000E+00  0.00000000E+00  0.00000000E+00  0.00000000E+00  0.00000000E+00
  0.00000000E+00  0.00000000E+00  0.00000000E+00  0.00000000E+00  0.00000000E+00
  0.00000000E+00  0.00000000E+00  0.00000000E+00
Nuclear GFac                               R   N=          18
  0.00000000E+00  0.00000000E+00  0.00000000E+00  0.00000000E+00  0.00000000E+00
  0.00000000E+00  0.00000000E+00  0.00000000E+00  2.79284600E+00  2.79284600E+00
  2.79284600E+00  2.79284600E+00  2.79284600E+00  2.79284600E+00  2.79284600E+00
  2.79284600E+00  2.79284600E+00  2.79284600E+00
MicOpt                                     I   N=          18
          -1          -1          -1          -1          -1          -1
          -1          -1          -1          -1          -1          -1
          -1          -1          -1          -1          -1          -1
Number of residues                         I                0
Number of secondary structures             I                0
Redundant internal dimensions              I   N=           4
          74          17          29          28
Redundant internal coordinate indices      I   N=         296
           1           2           0           0           1           9
           0           0           1          10           0           0
           1          11           0           0           2           3
           0           0           2          12           0           0
           2          13           0           0           3           4
           0           0           4           5           0           0
           4           6           0           0           6           7
           0           0           7           8           0           0
           7          14           0           0           7          15
           0           0           8          16           0           0
           8          17           0           0           8          18
           0           0           2           1           9           0
           2           1          10           0           2           1
          11           0           9           1          10           0
           9           1          11           0          10           1
          11           0           1           2           3           0
           1           2          12           0           1           2
          13           0           3           2          12           0
           3           2          13           0          12           2
          13           0           2           3           4           0
           3           4           5           0           3           4
           6           0           5           4           6           0
           4           6           7           0           6           7
           8           0           6           7          14           0
           6           7          15           0           8           7
          14           0           8           7          15           0
          14           7          15           0           7           8
          16           0           7           8          17           0
           7           8          18           0          16           8
          17           0          16           8          18           0
          17           8          18           0           9           1
           2           3           9           1           2          12
           9           1           2          13          10           1
           2           3          10           1           2          12
          10           1           2          13          11           1
           2           3          11           1           2          12
          11           1           2          13           1           2
           3           4          12           2           3           4
          13           2           3           4           2           3
           4           5           2           3           4           6
           3           4           6           7           5           4
           6           7           4           6           7           8
           4           6           7          14           4           6
           7          15           6           7           8          16
           6           7           8          17           6           7
           8          18          14           7           8          16
          14           7           8          17          14           7
           8          18          15           7           8          16
          15           7           8          17          15           7
           8          18
Redundant internal coordinates             R   N=          74
  2.87154569E+00  2.06596559E+00  2.06869821E+00  2.07083989E+00  2.73345580E+00
  2.06401255E+00  2.06500556E+00  2.53431885E+00  2.29290411E+00  2.53193980E+00
  2.73074115E+00  2.86380264E+00  2.06832363E+00  2.06824477E+00  2.06810837E+00
  2.06957012E+00  2.06813237E+00  1.92662207E+00  1.93188120E+00  1.91774328E+00
  1.90336624E+00  1.89109815E+00  1.89229539E+00  1.94314629E+00  1.94892387E+00
  1.94301815E+00  1.81419748E+00  1.89996401E+00  1.90987451E+00  2.01245464E+00
  2.20497974E+00  1.88274658E+00  2.19545123E+00  2.00485299E+00  1.86960240E+00
  1.89947078E+00  1.89973433E+00  1.95707769E+00  1.95681162E+00  1.87996445E+00
  1.93438572E+00  1.91590007E+00  1.93440199E+00  1.89331074E+00  1.89148287E+00
  1.89331899E+00 -1.13149686E+00  3.13246066E+00  9.92054757E-01  9.77564369E-01
 -1.04166342E+00  3.10111598E+00  3.06702059E+00  1.04779280E+00 -1.09261311E+00
  1.41967836E+00 -2.76290522E+00 -7.28710835E-01  2.98271006E-02 -3.11581515E+00
 -3.13775165E+00 -1.80587572E-04 -3.13680556E+00 -1.01732933E+00  1.02707279E+00
 -1.05057216E+00  3.14149739E+00  1.05036109E+00 -3.13334518E+00  1.05872437E+00
 -1.03241193E+00  1.03236923E+00 -1.05874652E+00  3.13330248E+00
ZRed-IntVec                                I   N=          74
           0           0           0           0           0           0
           0           0           0           0           0           0
           0           0           0           0           0           0
           0           0           0           0           0           0
           0           0           0           0           0           0
           0           0           0           0           0           0
           0           0           0           0           0           0
           0           0           0           0           0           0
           0           0           0           0           0           0
           0           0           0           0           0           0
           0           0           0           0           0           0
           0           0           0           0           0           0
           0           0
ZRed-FPVec                                 R   N=          74
  0.00000000E+00  0.00000000E+00  0.00000000E+00  0.00000000E+00  0.00000000E+00
  0.00000000E+00  0.00000000E+00  0.00000000E+00  0.00000000E+00  0.00000000E+00
  0.00000000E+00  0.00000000E+00  0.00000000E+00  0.00000000E+00  0.00000000E+00
  0.00000000E+00  0.00000000E+00  0.00000000E+00  0.00000000E+00  0.00000000E+00
  0.00000000E+00  0.00000000E+00  0.00000000E+00  0.00000000E+00  0.00000000E+00
  0.00000000E+00  0.00000000E+00  0.00000000E+00  0.00000000E+00  0.00000000E+00
  0.00000000E+00  0.00000000E+00  0.00000000E+00  0.00000000E+00  0.00000000E+00
  0.00000000E+00  0.00000000E+00  0.00000000E+00  0.00000000E+00  0.00000000E+00
  0.00000000E+00  0.00000000E+00  0.00000000E+00  0.00000000E+00  0.00000000E+00
  0.00000000E+00  0.00000000E+00  0.00000000E+00  0.00000000E+00  0.00000000E+00
  0.00000000E+00  0.00000000E+00  0.00000000E+00  0.00000000E+00  0.00000000E+00
  0.00000000E+00  0.00000000E+00  0.00000000E+00  0.00000000E+00  0.00000000E+00
  0.00000000E+00  0.00000000E+00  0.00000000E+00  0.00000000E+00  0.00000000E+00
  0.00000000E+00  0.00000000E+00  0.00000000E+00  0.00000000E+00  0.00000000E+00
  0.00000000E+00  0.00000000E+00  0.00000000E+00  0.00000000E+00
ZRed-Constraint1                           R   N=          74
  2.87154569E+00  2.06596559E+00  2.06869821E+00  2.07083989E+00  2.73345580E+00
  2.06401255E+00  2.06500556E+00  2.53431885E+00  2.29290411E+00  2.53193980E+00
  2.73074115E+00  2.86380264E+00  2.06832363E+00  2.06824477E+00  2.06810837E+00
  2.06957012E+00  2.06813237E+00  1.92662207E+00  1.93188120E+00  1.91774328E+00
  1.90336624E+00  1.89109815E+00  1.89229539E+00  1.94314629E+00  1.94892387E+00
  1.94301815E+00  1.81419748E+00  1.89996401E+00  1.90987451E+00  2.01245464E+00
  2.20497974E+00  1.88274658E+00  2.19545123E+00  2.00485299E+00  1.86960240E+00
  1.89947078E+00  1.89973433E+00  1.95707769E+00  1.95681162E+00  1.87996445E+00
  1.93438572E+00  1.91590007E+00  1.93440199E+00  1.89331074E+00  1.89148287E+00
  1.89331899E+00 -1.13149686E+00  3.13246066E+00  9.92054757E-01  9.77564369E-01
 -1.04166342E+00  3.10111598E+00  3.06702059E+00  1.04779280E+00 -1.09261311E+00
  1.41967836E+00 -2.76290522E+00 -7.28710835E-01  2.98271006E-02 -3.11581515E+00
 -3.13775165E+00 -1.80587572E-04 -3.13680556E+00 -1.01732933E+00  1.02707279E+00
 -1.05057216E+00  3.14149739E+00  1.05036109E+00 -3.13334518E+00  1.05872437E+00
 -1.03241193E+00  1.03236923E+00 -1.05874652E+00  3.13330248E+00
ZRed-Constraint2                           R   N=          74
  2.86730126E+00  2.06845253E+00  2.06917526E+00  2.06670084E+00  2.70757492E+00
  2.06923521E+00  2.07147529E+00  2.56267844E+00  2.30837833E+00  2.56341273E+00
  2.70289896E+00  2.86557433E+00  2.07089530E+00  2.07088362E+00  2.06932397E+00
  2.06654846E+00  2.06932592E+00  1.93810371E+00  1.92955455E+00  1.93324442E+00
  1.86600936E+00  1.89567968E+00  1.89943841E+00  1.92403093E+00  1.91255978E+00
  1.94498924E+00  1.86766365E+00  1.94445371E+00  1.86748521E+00  2.01907457E+00
  2.20098268E+00  1.88670986E+00  2.19549025E+00  1.99081755E+00  1.88904695E+00
  1.91613985E+00  1.91611637E+00  1.91409110E+00  1.91413319E+00  1.91414561E+00
  1.93057138E+00  1.93562101E+00  1.93056280E+00  1.89973186E+00  1.86588290E+00
  1.89973159E+00 -1.09194667E+00  3.14011663E+00  1.07655944E+00  9.76334548E-01
 -1.07478746E+00 -3.13834465E+00  3.08330396E+00  1.03218195E+00 -1.03137524E+00
  1.51387794E+00 -2.69062588E+00 -6.54936730E-01 -7.04210387E-03  3.13685736E+00
  3.13921882E+00 -7.61958897E-05 -3.14097574E+00 -1.05217638E+00  1.05337288E+00
 -1.03200176E+00  3.14158836E+00  1.03199926E+00 -3.12208832E+00  1.05150181E+00
 -1.05808729E+00  1.05808091E+00 -1.05151427E+00  3.12208194E+00
SymInf integers                            I   N=          26
           1           1           1           1           1           0
           0           0           0           0           0           0
           0           0           0           0           0           0
           0           0           0           0           0           0
           0           0
RotTr to input orientation                 R   N=          12
  9.84644799E-01 -2.57243666E-02 -1.72664059E-01  7.04358710E-02 -8.46454891E-01
  5.27781116E-01 -1.59729172E-01 -5.31838674E-01 -8.31645487E-01  1.15873896E-01
  1.31675282E-01  2.17333081E-01
Number of contracted shells                I               52
Number of primitive shells                 I              128
Pure/Cartesian d shells                    I                1
Pure/Cartesian f shells                    I                0
Highest angular momentum                   I                2
Largest degree of contraction              I                6
Shell types                                I   N=          52
           0          -1          -1           2           0          -1
          -1           2           0          -1          -1           2
           0          -1          -1           2           0          -1
          -1           2           0          -1          -1           2
           0          -1          -1           2           0          -1
          -1           2           0           0           0           0
           0           0           0           0           0           0
           0           0           0           0           0           0
           0           0           0           0
Number of primitives per shell             I   N=          52
           6           3           1           1           6           3
           1           1           6           3           1           1
           6           3           1           1           6           3
           1           1           6           3           1           1
           6           3           1           1           6           3
           1           1           3           1           3           1
           3           1           3           1           3           1
           3           1           3           1           3           1
           3           1           3           1
Shell to atom map                          I   N=          52
           1           1           1           1           2           2
           2           2           3           3           3           3
           4           4           4           4           5           5
           5           5           6           6           6           6
           7           7           7           7           8           8
           8           8           9           9          10          10
          11          11          12          12          13          13
          14          14          15          15          16          16
          17          17          18          18
Primitive exponents                        R   N=         128
  3.04752488E+03  4.57369518E+02  1.03948685E+02  2.92101553E+01  9.28666296E+00
  3.16392696E+00  7.86827235E+00  1.88128854E+00  5.44249258E-01  1.68714478E-01
  8.00000000E-01  3.04752488E+03  4.57369518E+02  1.03948685E+02  2.92101553E+01
  9.28666296E+00  3.16392696E+00  7.86827235E+00  1.88128854E+00  5.44249258E-01
  1.68714478E-01  8.00000000E-01  5.48467166E+03  8.25234946E+02  1.88046958E+02
  5.29645000E+01  1.68975704E+01  5.79963534E+00  1.55396162E+01  3.59993359E+00
  1.01376175E+00  2.70005823E-01  8.00000000E-01  3.04752488E+03  4.57369518E+02
  1.03948685E+02  2.92101553E+01  9.28666296E+00  3.16392696E+00  7.86827235E+00
  1.88128854E+00  5.44249258E-01  1.68714478E-01  8.00000000E-01  5.48467166E+03
  8.25234946E+02  1.88046958E+02  5.29645000E+01  1.68975704E+01  5.79963534E+00
  1.55396162E+01  3.59993359E+00  1.01376175E+00  2.70005823E-01  8.00000000E-01
  5.48467166E+03  8.25234946E+02  1.88046958E+02  5.29645000E+01  1.68975704E+01
  5.79963534E+00  1.55396162E+01  3.59993359E+00  1.01376175E+00  2.70005823E-01
  8.00000000E-01  3.04752488E+03  4.57369518E+02  1.03948685E+02  2.92101553E+01
  9.28666296E+00  3.16392696E+00  7.86827235E+00  1.88128854E+00  5.44249258E-01
  1.68714478E-01  8.00000000E-01  3.04752488E+03  4.57369518E+02  1.03948685E+02
  2.92101553E+01  9.28666296E+00  3.16392696E+00  7.86827235E+00  1.88128854E+00
  5.44249258E-01  1.68714478E-01  8.00000000E-01  1.87311370E+01  2.82539436E+00
  6.40121692E-01  1.61277759E-01  1.87311370E+01  2.82539436E+00  6.40121692E-01
  1.61277759E-01  1.87311370E+01  2.82539436E+00  6.40121692E-01  1.61277759E-01
  1.87311370E+01  2.82539436E+00  6.40121692E-01  1.61277759E-01  1.87311370E+01
  2.82539436E+00  6.40121692E-01  1.61277759E-01  1.87311370E+01  2.82539436E+00
  6.40121692E-01  1.61277759E-01  1.87311370E+01  2.82539436E+00  6.40121692E-01
  1.61277759E-01  1.87311370E+01  2.82539436E+00  6.40121692E-01  1.61277759E-01
  1.87311370E+01  2.82539436E+00  6.40121692E-01  1.61277759E-01  1.87311370E+01
  2.82539436E+00  6.40121692E-01  1.61277759E-01
Contraction coefficients                   R   N=         128
  1.83473713E-03  1.40373228E-02  6.88426223E-02  2.32184443E-01  4.67941348E-01
  3.62311985E-01 -1.19332420E-01 -1.60854152E-01  1.14345644E+00  1.00000000E+00
  1.00000000E+00  1.83473713E-03  1.40373228E-02  6.88426223E-02  2.32184443E-01
  4.67941348E-01  3.62311985E-01 -1.19332420E-01 -1.60854152E-01  1.14345644E+00
  1.00000000E+00  1.00000000E+00  1.83107443E-03  1.39501722E-02  6.84450781E-02
  2.32714336E-01  4.70192898E-01  3.58520853E-01 -1.10777550E-01 -1.48026263E-01
  1.13076702E+00  1.00000000E+00  1.00000000E+00  1.83473713E-03  1.40373228E-02
  6.88426223E-02  2.32184443E-01  4.67941348E-01  3.62311985E-01 -1.19332420E-01
 -1.60854152E-01  1.14345644E+00  1.00000000E+00  1.00000000E+00  1.83107443E-03
  1.39501722E-02  6.84450781E-02  2.32714336E-01  4.70192898E-01  3.58520853E-01
 -1.10777550E-01 -1.48026263E-01  1.13076702E+00  1.00000000E+00  1.00000000E+00
  1.83107443E-03  1.39501722E-02  6.84450781E-02  2.32714336E-01  4.70192898E-01
  3.58520853E-01 -1.10777550E-01 -1.48026263E-01  1.13076702E+00  1.00000000E+00
  1.00000000E+00  1.83473713E-03  1.40373228E-02  6.88426223E-02  2.32184443E-01
  4.67941348E-01  3.62311985E-01 -1.19332420E-01 -1.60854152E-01  1.14345644E+00
  1.00000000E+00  1.00000000E+00  1.83473713E-03  1.40373228E-02  6.88426223E-02
  2.32184443E-01  4.67941348E-01  3.62311985E-01 -1.19332420E-01 -1.60854152E-01
  1.14345644E+00  1.00000000E+00  1.00000000E+00  3.34946043E-02  2.34726953E-01
  8.13757326E-01  1.00000000E+00  3.34946043E-02  2.34726953E-01  8.13757326E-01
  1.00000000E+00  3.34946043E-02  2.34726953E-01  8.13757326E-01  1.00000000E+00
  3.34946043E-02  2.34726953E-01  8.13757326E-01  1.00000000E+00  3.34946043E-02
  2.34726953E-01  8.13757326E-01  1.00000000E+00  3.34946043E-02  2.34726953E-01
  8.13757326E-01  1.00000000E+00  3.34946043E-02  2.34726953E-01  8.13757326E-01
  1.00000000E+00  3.34946043E-02  2.34726953E-01  8.13757326E-01  1.00000000E+00
  3.34946043E-02  2.34726953E-01  8.13757326E-01  1.00000000E+00  3.34946043E-02
  2.34726953E-01  8.13757326E-01  1.00000000E+00
P(S=P) Contraction coefficients            R   N=         128
  0.00000000E+00  0.00000000E+00  0.00000000E+00  0.00000000E+00  0.00000000E+00
  0.00000000E+00  6.89990666E-02  3.16423961E-01  7.44308291E-01  1.00000000E+00
  0.00000000E+00  0.00000000E+00  0.00000000E+00  0.00000000E+00  0.00000000E+00
  0.00000000E+00  0.00000000E+00  6.89990666E-02  3.16423961E-01  7.44308291E-01
  1.00000000E+00  0.00000000E+00  0.00000000E+00  0.00000000E+00  0.00000000E+00
  0.00000000E+00  0.00000000E+00  0.00000000E+00  7.08742682E-02  3.39752839E-01
  7.27158577E-01  1.00000000E+00  0.00000000E+00  0.00000000E+00  0.00000000E+00
  0.00000000E+00  0.00000000E+00  0.00000000E+00  0.00000000E+00  6.89990666E-02
  3.16423961E-01  7.44308291E-01  1.00000000E+00  0.00000000E+00  0.00000000E+00
  0.00000000E+00  0.00000000E+00  0.00000000E+00  0.00000000E+00  0.00000000E+00
  7.08742682E-02  3.39752839E-01  7.27158577E-01  1.00000000E+00  0.00000000E+00
  0.00000000E+00  0.00000000E+00  0.00000000E+00  0.00000000E+00  0.00000000E+00
  0.00000000E+00  7.08742682E-02  3.39752839E-01  7.27158577E-01  1.00000000E+00
  0.00000000E+00  0.00000000E+00  0.00000000E+00  0.00000000E+00  0.00000000E+00
  0.00000000E+00  0.00000000E+00  6.89990666E-02  3.16423961E-01  7.44308291E-01
  1.00000000E+00  0.00000000E+00  0.00000000E+00  0.00000000E+00  0.00000000E+00
  0.00000000E+00  0.00000000E+00  0.00000000E+00  6.89990666E-02  3.16423961E-01
  7.44308291E-01  1.00000000E+00  0.00000000E+00  0.00000000E+00  0.00000000E+00
  0.00000000E+00  0.00000000E+00  0.00000000E+00  0.00000000E+00  0.00000000E+00
  0.00000000E+00  0.00000000E+00  0.00000000E+00  0.00000000E+00  0.00000000E+00
  0.00000000E+00  0.00000000E+00  0.00000000E+00  0.00000000E+00  0.00000000E+00
  0.00000000E+00  0.00000000E+00  0.00000000E+00  0.00000000E+00  0.00000000E+00
  0.00000000E+00  0.00000000E+00  0.00000000E+00  0.00000000E+00  0.00000000E+00
  0.00000000E+00  0.00000000E+00  0.00000000E+00  0.00000000E+00  0.00000000E+00
  0.00000000E+00  0.00000000E+00  0.00000000E+00  0.00000000E+00  0.00000000E+00
  0.00000000E+00  0.00000000E+00  0.00000000E+00
Coordinates of each shell                  R   N=         156
  5.66943779E+00  1.31698781E-01  1.59305651E+00  5.66943779E+00  1.31698781E-01
  1.59305651E+00  5.66943779E+00  1.31698781E-01  1.59305651E+00  5.66943779E+00
  1.31698781E-01  1.59305651E+00  4.51436285E+00 -6.51140474E-01 -9.16672412E-01
  4.51436285E+00 -6.51140474E-01 -9.16672412E-01  4.51436285E+00 -6.51140474E-01
 -9.16672412E-01  4.51436285E+00 -6.51140474E-01 -9.16672412E-01  1.95144705E+00
 -1.54575510E+00 -5.95879812E-01  1.95144705E+00 -1.54575510E+00 -5.95879812E-01
  1.95144705E+00 -1.54575510E+00 -5.95879812E-01  1.95144705E+00 -1.54575510E+00
 -5.95879812E-01  1.85042554E-01  2.64028225E-01 -4.30738825E-01  1.85042554E-01
  2.64028225E-01 -4.30738825E-01  1.85042554E-01  2.64028225E-01 -4.30738825E-01
  1.85042554E-01  2.64028225E-01 -4.30738825E-01  5.38078333E-01  2.52468904E+00
 -5.79694099E-01  5.38078333E-01  2.52468904E+00 -5.79694099E-01  5.38078333E-01
  2.52468904E+00 -5.79694099E-01  5.38078333E-01  2.52468904E+00 -5.79694099E-01
 -2.05389081E+00 -8.65055952E-01 -7.99319234E-02 -2.05389081E+00 -8.65055952E-01
 -7.99319234E-02 -2.05389081E+00 -8.65055952E-01 -7.99319234E-02 -2.05389081E+00
 -8.65055952E-01 -7.99319234E-02 -4.17857722E+00  8.37627328E-01  1.28693431E-01
 -4.17857722E+00  8.37627328E-01  1.28693431E-01 -4.17857722E+00  8.37627328E-01
  1.28693431E-01 -4.17857722E+00  8.37627328E-01  1.28693431E-01 -6.51320661E+00
 -7.72383702E-01  5.27109823E-01 -6.51320661E+00 -7.72383702E-01  5.27109823E-01
 -6.51320661E+00 -7.72383702E-01  5.27109823E-01 -6.51320661E+00 -7.72383702E-01
  5.27109823E-01  4.66085783E+00  1.75696515E+00  2.37375462E+00  4.66085783E+00
  1.75696515E+00  2.37375462E+00  5.59223322E+00 -1.42700418E+00  2.95099495E+00
  5.59223322E+00 -1.42700418E+00  2.95099495E+00  7.65194073E+00  6.64237540E-01
  1.32017852E+00  7.65194073E+00  6.64237540E-01  1.32017852E+00  5.50450620E+00
 -2.26352317E+00 -1.74128503E+00  5.50450620E+00 -2.26352317E+00 -1.74128503E+00
  4.51122708E+00  9.14690937E-01 -2.26293023E+00  4.51122708E+00  9.14690937E-01
 -2.26293023E+00 -3.84512385E+00  2.13096207E+00  1.70795172E+00 -3.84512385E+00
  2.13096207E+00  1.70795172E+00 -4.29909498E+00  1.97028695E+00 -1.59763042E+00
 -4.29909498E+00  1.97028695E+00 -1.59763042E+00 -6.79944475E+00 -2.05977420E+00
 -1.06592679E+00 -6.79944475E+00 -2.05977420E+00 -1.06592679E+00 -8.18045842E+00
  4.41928616E-01  6.96925813E-01 -8.18045842E+00  4.41928616E-01  6.96925813E-01
 -6.34407584E+00 -1.89877460E+00  2.25332239E+00 -6.34407584E+00 -1.89877460E+00
  2.25332239E+00
Num ILSW                                   I              100
ILSW                                       I   N=         100
           0           1           0           0           2           0
           0           0           0           0         402          -1
           5           0           0           0           2           0
           0           0           1           0           1           0
           1           0           0           0           0           0
           0           0      100000           0          -1           0
           0           0           0           0           0           0
           0           0           0           1           0           0
           0 -2000000000           1           0           0           0
           0           0         141          52           0           0
           0           0           5           0           0           0
           0           0           0           0           0           1
           0           0           0           0           0           0