EC_B3LYP_6-31ppgd,p_pcm_Acetone                                         
Freq      RB3LYP                                                      6-31++G(d,p)        
Number of atoms                            I               10
Info1-9                                    I   N=           9
          19          19        1002           0           0         100
           6          18        -502
Full Title                                 C   N=           3
EC_B3LYP_6-31ppgd,p_pcm_Acetone     
Route                                      C   N=           6
# opt freq B3LYP/6-31++g(d,p) em=gd3bj scrf=(pcm,solvent=Ace
tone)       
Charge                                     I                0
Multiplicity                               I                1
Number of electrons                        I               46
Number of alpha electrons                  I               23
Number of beta electrons                   I               23
Number of basis functions                  I              138
Number of independent functions            I              138
Number of point charges in /Mol/           I                0
Number of translation vectors              I                0
Atomic numbers                             I   N=          10
           6           6           8           6           8           8
           1           1           1           1
Nuclear charges                            R   N=          10
  6.00000000E+00  6.00000000E+00  8.00000000E+00  6.00000000E+00  8.00000000E+00
  8.00000000E+00  1.00000000E+00  1.00000000E+00  1.00000000E+00  1.00000000E+00
Current cartesian coordinates              R   N=          30
  1.78954077E-16  1.44644241E+00 -2.47934390E+00 -3.43000508E-16 -1.44644241E+00
 -2.47934390E+00 -4.91670333E-01 -2.04572336E+00  1.52049791E-01 -4.42433993E-17
 -2.00510739E-16  1.59105356E+00 -2.39311163E-17 -4.91917613E-16  3.87412991E+00
  4.91670333E-01  2.04572336E+00  1.52049791E-01 -1.82981315E+00  2.25373840E+00
 -2.98772214E+00  1.49619887E+00  2.27567811E+00 -3.62229311E+00 -1.49619887E+00
 -2.27567811E+00 -3.62229311E+00  1.82981315E+00 -2.25373840E+00 -2.98772214E+00
Number of symbols in /Mol/                 I                0
Force Field                                I                0
Atom Types                                 C   N=          10
                                                            
                                                            
Int Atom Types                             I   N=          10
           0           0           0           0           0           0
           0           0           0           0
MM charges                                 R   N=          10
  0.00000000E+00  0.00000000E+00  0.00000000E+00  0.00000000E+00  0.00000000E+00
  0.00000000E+00  0.00000000E+00  0.00000000E+00  0.00000000E+00  0.00000000E+00
Integer atomic weights                     I   N=          10
          12          12          16          12          16          16
           1           1           1           1
Real atomic weights                        R   N=          10
  1.20000000E+01  1.20000000E+01  1.59949146E+01  1.20000000E+01  1.59949146E+01
  1.59949146E+01  1.00782504E+00  1.00782504E+00  1.00782504E+00  1.00782504E+00
Atom fragment info                         I   N=          10
           0           0           0           0           0           0
           0           0           0           0
Atom residue num                           I   N=          10
           0           0           0           0           0           0
           0           0           0           0
Nuclear spins                              I   N=          10
           0           0           0           0           0           0
           1           1           1           1
Nuclear ZEff                               R   N=          10
 -3.60000000E+00 -3.60000000E+00 -5.60000000E+00 -3.60000000E+00 -5.60000000E+00
 -5.60000000E+00 -1.00000000E+00 -1.00000000E+00 -1.00000000E+00 -1.00000000E+00
Nuclear ZNuc                               R   N=          10
  6.00000000E+00  6.00000000E+00  8.00000000E+00  6.00000000E+00  8.00000000E+00
  8.00000000E+00  1.00000000E+00  1.00000000E+00  1.00000000E+00  1.00000000E+00
Nuclear QMom                               R   N=          10
  0.00000000E+00  0.00000000E+00  0.00000000E+00  0.00000000E+00  0.00000000E+00
  0.00000000E+00  0.00000000E+00  0.00000000E+00  0.00000000E+00  0.00000000E+00
Nuclear GFac                               R   N=          10
  0.00000000E+00  0.00000000E+00  0.00000000E+00  0.00000000E+00  0.00000000E+00
  0.00000000E+00  2.79284600E+00  2.79284600E+00  2.79284600E+00  2.79284600E+00
MicOpt                                     I   N=          10
          -1          -1          -1          -1          -1          -1
          -1          -1          -1          -1
Number of residues                         I                0
Number of secondary structures             I                0
Redundant internal dimensions              I   N=           4
          46          10          17          19
Redundant internal coordinate indices      I   N=         184
           1           2           0           0           1           6
           0           0           1           7           0           0
           1           8           0           0           2           3
           0           0           2           9           0           0
           2          10           0           0           3           4
           0           0           4           5           0           0
           4           6           0           0           2           1
           6           0           2           1           7           0
           2           1           8           0           6           1
           7           0           6           1           8           0
           7           1           8           0           1           2
           3           0           1           2           9           0
           1           2          10           0           3           2
           9           0           3           2          10           0
           9           2          10           0           2           3
           4           0           3           4           5           0
           3           4           6           0           5           4
           6           0           1           6           4           0
           6           1           2           3           6           1
           2           9           6           1           2          10
           7           1           2           3           7           1
           2           9           7           1           2          10
           8           1           2           3           8           1
           2           9           8           1           2          10
           2           1           6           4           7           1
           6           4           8           1           6           4
           1           2           3           4           9           2
           3           4          10           2           3           4
           2           3           4           5           2           3
           4           6           3           4           6           1
           5           4           6           1
Redundant internal coordinates             R   N=          46
  2.89288482E+00  2.74319342E+00  2.06358703E+00  2.05732249E+00  2.74319342E+00
  2.05732249E+00  2.06358703E+00  2.54901072E+00  2.28307634E+00  2.54901072E+00
  1.79103349E+00  1.97274240E+00  1.98566035E+00  1.88575847E+00  1.89073458E+00
  1.92871013E+00  1.79103349E+00  1.98566035E+00  1.97274240E+00  1.89073458E+00
  1.88575847E+00  1.92871013E+00  1.90882462E+00  2.17066517E+00  1.94185497E+00
  2.17066517E+00  1.90882462E+00  3.69435806E-01  2.40785337E+00 -1.65707439E+00
 -1.65707439E+00  3.81343172E-01  2.59960072E+00  2.40785337E+00 -1.83691437E+00
  3.81343172E-01 -3.16124919E-01  1.77201418E+00 -2.42128654E+00 -3.16124919E-01
 -2.42128654E+00  1.77201418E+00 -3.01060830E+00  1.30984356E-01  1.30984356E-01
 -3.01060830E+00
ZRed-IntVec                                I   N=          46
           0           0           0           0           0           0
           0           0           0           0           0           0
           0           0           0           0           0           0
           0           0           0           0           0           0
           0           0           0           0           0           0
           0           0           0           0           0           0
           0           0           0           0           0           0
           0           0           0           0
ZRed-FPVec                                 R   N=          46
  0.00000000E+00  0.00000000E+00  0.00000000E+00  0.00000000E+00  0.00000000E+00
  0.00000000E+00  0.00000000E+00  0.00000000E+00  0.00000000E+00  0.00000000E+00
  0.00000000E+00  0.00000000E+00  0.00000000E+00  0.00000000E+00  0.00000000E+00
  0.00000000E+00  0.00000000E+00  0.00000000E+00  0.00000000E+00  0.00000000E+00
  0.00000000E+00  0.00000000E+00  0.00000000E+00  0.00000000E+00  0.00000000E+00
  0.00000000E+00  0.00000000E+00  0.00000000E+00  0.00000000E+00  0.00000000E+00
  0.00000000E+00  0.00000000E+00  0.00000000E+00  0.00000000E+00  0.00000000E+00
  0.00000000E+00  0.00000000E+00  0.00000000E+00  0.00000000E+00  0.00000000E+00
  0.00000000E+00  0.00000000E+00  0.00000000E+00  0.00000000E+00  0.00000000E+00
  0.00000000E+00
ZRed-Constraint1                           R   N=          46
  2.89288482E+00  2.74319342E+00  2.06358703E+00  2.05732249E+00  2.74319342E+00
  2.05732249E+00  2.06358703E+00  2.54901072E+00  2.28307634E+00  2.54901072E+00
  1.79103349E+00  1.97274240E+00  1.98566035E+00  1.88575847E+00  1.89073458E+00
  1.92871013E+00  1.79103349E+00  1.98566035E+00  1.97274240E+00  1.89073458E+00
  1.88575847E+00  1.92871013E+00  1.90882462E+00  2.17066517E+00  1.94185497E+00
  2.17066517E+00  1.90882462E+00  3.69435806E-01  2.40785337E+00 -1.65707439E+00
 -1.65707439E+00  3.81343172E-01  2.59960072E+00  2.40785337E+00 -1.83691437E+00
  3.81343172E-01 -3.16124919E-01  1.77201418E+00 -2.42128654E+00 -3.16124919E-01
 -2.42128654E+00  1.77201418E+00 -3.01060830E+00  1.30984356E-01  1.30984356E-01
 -3.01060830E+00
ZRed-Constraint2                           R   N=          46
  2.82297134E+00  2.67409075E+00  2.06974938E+00  2.06603662E+00  2.67409072E+00
  2.06603652E+00  2.06974932E+00  2.58280618E+00  2.30312555E+00  2.58280629E+00
  1.79495187E+00  1.96326178E+00  1.96455121E+00  1.89557964E+00  1.93791445E+00
  1.90470545E+00  1.79495185E+00  1.96455112E+00  1.96326187E+00  1.93791449E+00
  1.89557947E+00  1.90470559E+00  1.85883751E+00  2.17236838E+00  1.93844847E+00
  2.17236846E+00  1.85883749E+00  5.55303007E-01  2.64204844E+00 -1.48068739E+00
 -1.48068756E+00  6.06057868E-01  2.76650735E+00  2.64204845E+00 -1.55439143E+00
  6.06058054E-01 -4.54830836E-01  1.62884250E+00 -2.55996202E+00 -4.54831070E-01
 -2.55996214E+00  1.62884229E+00 -2.95577037E+00  1.85822348E-01  1.85821952E-01
 -2.95577064E+00
SymInf integers                            I   N=          26
           2           2           1           1           1          -1
          -1           1           0           0           0           0
           0           0           0           0           0           0
           0           0           0           0           0           0
           0           0
RotTr to input orientation                 R   N=          12
  4.91732784E-02  1.11670872E-01 -9.92527886E-01  3.18582750E-02  9.93049030E-01
  1.13307876E-01  9.98282044E-01 -3.71919461E-02  4.52738350E-02  1.23881152E+00
 -4.61530347E-02  5.61823170E-02
Number of contracted shells                I               46
Number of primitive shells                 I               96
Pure/Cartesian d shells                    I                1
Pure/Cartesian f shells                    I                0
Highest angular momentum                   I                2
Largest degree of contraction              I                6
Shell types                                I   N=          46
           0          -1          -1          -1           2           0
          -1          -1          -1           2           0          -1
          -1          -1           2           0          -1          -1
          -1           2           0          -1          -1          -1
           2           0          -1          -1          -1           2
           0           0           0           1           0           0
           0           1           0           0           0           1
           0           0           0           1
Number of primitives per shell             I   N=          46
           6           3           1           1           1           6
           3           1           1           1           6           3
           1           1           1           6           3           1
           1           1           6           3           1           1
           1           6           3           1           1           1
           3           1           1           1           3           1
           1           1           3           1           1           1
           3           1           1           1
Shell to atom map                          I   N=          46
           1           1           1           1           1           2
           2           2           2           2           3           3
           3           3           3           4           4           4
           4           4           5           5           5           5
           5           6           6           6           6           6
           7           7           7           7           8           8
           8           8           9           9           9           9
          10          10          10          10
Primitive exponents                        R   N=          96
  3.04752488E+03  4.57369518E+02  1.03948685E+02  2.92101553E+01  9.28666296E+00
  3.16392696E+00  7.86827235E+00  1.88128854E+00  5.44249258E-01  1.68714478E-01
  4.38000000E-02  8.00000000E-01  3.04752488E+03  4.57369518E+02  1.03948685E+02
  2.92101553E+01  9.28666296E+00  3.16392696E+00  7.86827235E+00  1.88128854E+00
  5.44249258E-01  1.68714478E-01  4.38000000E-02  8.00000000E-01  5.48467166E+03
  8.25234946E+02  1.88046958E+02  5.29645000E+01  1.68975704E+01  5.79963534E+00
  1.55396162E+01  3.59993359E+00  1.01376175E+00  2.70005823E-01  8.45000000E-02
  8.00000000E-01  3.04752488E+03  4.57369518E+02  1.03948685E+02  2.92101553E+01
  9.28666296E+00  3.16392696E+00  7.86827235E+00  1.88128854E+00  5.44249258E-01
  1.68714478E-01  4.38000000E-02  8.00000000E-01  5.48467166E+03  8.25234946E+02
  1.88046958E+02  5.29645000E+01  1.68975704E+01  5.79963534E+00  1.55396162E+01
  3.59993359E+00  1.01376175E+00  2.70005823E-01  8.45000000E-02  8.00000000E-01
  5.48467166E+03  8.25234946E+02  1.88046958E+02  5.29645000E+01  1.68975704E+01
  5.79963534E+00  1.55396162E+01  3.59993359E+00  1.01376175E+00  2.70005823E-01
  8.45000000E-02  8.00000000E-01  1.87311370E+01  2.82539436E+00  6.40121692E-01
  1.61277759E-01  3.60000000E-02  1.10000000E+00  1.87311370E+01  2.82539436E+00
  6.40121692E-01  1.61277759E-01  3.60000000E-02  1.10000000E+00  1.87311370E+01
  2.82539436E+00  6.40121692E-01  1.61277759E-01  3.60000000E-02  1.10000000E+00
  1.87311370E+01  2.82539436E+00  6.40121692E-01  1.61277759E-01  3.60000000E-02
  1.10000000E+00
Contraction coefficients                   R   N=          96
  1.83473713E-03  1.40373228E-02  6.88426223E-02  2.32184443E-01  4.67941348E-01
  3.62311985E-01 -1.19332420E-01 -1.60854152E-01  1.14345644E+00  1.00000000E+00
  1.00000000E+00  1.00000000E+00  1.83473713E-03  1.40373228E-02  6.88426223E-02
  2.32184443E-01  4.67941348E-01  3.62311985E-01 -1.19332420E-01 -1.60854152E-01
  1.14345644E+00  1.00000000E+00  1.00000000E+00  1.00000000E+00  1.83107443E-03
  1.39501722E-02  6.84450781E-02  2.32714336E-01  4.70192898E-01  3.58520853E-01
 -1.10777550E-01 -1.48026263E-01  1.13076702E+00  1.00000000E+00  1.00000000E+00
  1.00000000E+00  1.83473713E-03  1.40373228E-02  6.88426223E-02  2.32184443E-01
  4.67941348E-01  3.62311985E-01 -1.19332420E-01 -1.60854152E-01  1.14345644E+00
  1.00000000E+00  1.00000000E+00  1.00000000E+00  1.83107443E-03  1.39501722E-02
  6.84450781E-02  2.32714336E-01  4.70192898E-01  3.58520853E-01 -1.10777550E-01
 -1.48026263E-01  1.13076702E+00  1.00000000E+00  1.00000000E+00  1.00000000E+00
  1.83107443E-03  1.39501722E-02  6.84450781E-02  2.32714336E-01  4.70192898E-01
  3.58520853E-01 -1.10777550E-01 -1.48026263E-01  1.13076702E+00  1.00000000E+00
  1.00000000E+00  1.00000000E+00  3.34946043E-02  2.34726953E-01  8.13757326E-01
  1.00000000E+00  1.00000000E+00  1.00000000E+00  3.34946043E-02  2.34726953E-01
  8.13757326E-01  1.00000000E+00  1.00000000E+00  1.00000000E+00  3.34946043E-02
  2.34726953E-01  8.13757326E-01  1.00000000E+00  1.00000000E+00  1.00000000E+00
  3.34946043E-02  2.34726953E-01  8.13757326E-01  1.00000000E+00  1.00000000E+00
  1.00000000E+00
P(S=P) Contraction coefficients            R   N=          96
  0.00000000E+00  0.00000000E+00  0.00000000E+00  0.00000000E+00  0.00000000E+00
  0.00000000E+00  6.89990666E-02  3.16423961E-01  7.44308291E-01  1.00000000E+00
  1.00000000E+00  0.00000000E+00  0.00000000E+00  0.00000000E+00  0.00000000E+00
  0.00000000E+00  0.00000000E+00  0.00000000E+00  6.89990666E-02  3.16423961E-01
  7.44308291E-01  1.00000000E+00  1.00000000E+00  0.00000000E+00  0.00000000E+00
  0.00000000E+00  0.00000000E+00  0.00000000E+00  0.00000000E+00  0.00000000E+00
  7.08742682E-02  3.39752839E-01  7.27158577E-01  1.00000000E+00  1.00000000E+00
  0.00000000E+00  0.00000000E+00  0.00000000E+00  0.00000000E+00  0.00000000E+00
  0.00000000E+00  0.00000000E+00  6.89990666E-02  3.16423961E-01  7.44308291E-01
  1.00000000E+00  1.00000000E+00  0.00000000E+00  0.00000000E+00  0.00000000E+00
  0.00000000E+00  0.00000000E+00  0.00000000E+00  0.00000000E+00  7.08742682E-02
  3.39752839E-01  7.27158577E-01  1.00000000E+00  1.00000000E+00  0.00000000E+00
  0.00000000E+00  0.00000000E+00  0.00000000E+00  0.00000000E+00  0.00000000E+00
  0.00000000E+00  7.08742682E-02  3.39752839E-01  7.27158577E-01  1.00000000E+00
  1.00000000E+00  0.00000000E+00  0.00000000E+00  0.00000000E+00  0.00000000E+00
  0.00000000E+00  0.00000000E+00  0.00000000E+00  0.00000000E+00  0.00000000E+00
  0.00000000E+00  0.00000000E+00  0.00000000E+00  0.00000000E+00  0.00000000E+00
  0.00000000E+00  0.00000000E+00  0.00000000E+00  0.00000000E+00  0.00000000E+00
  0.00000000E+00  0.00000000E+00  0.00000000E+00  0.00000000E+00  0.00000000E+00
  0.00000000E+00
Coordinates of each shell                  R   N=         138
  1.30692909E-16  1.44644241E+00 -2.47934390E+00  1.30692909E-16  1.44644241E+00
 -2.47934390E+00  1.30692909E-16  1.44644241E+00 -2.47934390E+00  1.30692909E-16
  1.44644241E+00 -2.47934390E+00  1.30692909E-16  1.44644241E+00 -2.47934390E+00
 -3.43000508E-16 -1.44644241E+00 -2.47934390E+00 -3.43000508E-16 -1.44644241E+00
 -2.47934390E+00 -3.43000508E-16 -1.44644241E+00 -2.47934390E+00 -3.43000508E-16
 -1.44644241E+00 -2.47934390E+00 -3.43000508E-16 -1.44644241E+00 -2.47934390E+00
 -4.91670333E-01 -2.04572336E+00  1.52049791E-01 -4.91670333E-01 -2.04572336E+00
  1.52049791E-01 -4.91670333E-01 -2.04572336E+00  1.52049791E-01 -4.91670333E-01
 -2.04572336E+00  1.52049791E-01 -4.91670333E-01 -2.04572336E+00  1.52049791E-01
 -3.03656115E-17 -1.31121800E-16  1.59105356E+00 -3.03656115E-17 -1.31121800E-16
  1.59105356E+00 -3.03656115E-17 -1.31121800E-16  1.59105356E+00 -3.03656115E-17
 -1.31121800E-16  1.59105356E+00 -3.03656115E-17 -1.31121800E-16  1.59105356E+00
 -5.16866919E-17 -3.25384160E-16  3.87412991E+00 -5.16866919E-17 -3.25384160E-16
  3.87412991E+00 -5.16866919E-17 -3.25384160E-16  3.87412991E+00 -5.16866919E-17
 -3.25384160E-16  3.87412991E+00 -5.16866919E-17 -3.25384160E-16  3.87412991E+00
  4.91670333E-01  2.04572336E+00  1.52049791E-01  4.91670333E-01  2.04572336E+00
  1.52049791E-01  4.91670333E-01  2.04572336E+00  1.52049791E-01  4.91670333E-01
  2.04572336E+00  1.52049791E-01  4.91670333E-01  2.04572336E+00  1.52049791E-01
 -1.82981315E+00  2.25373840E+00 -2.98772214E+00 -1.82981315E+00  2.25373840E+00
 -2.98772214E+00 -1.82981315E+00  2.25373840E+00 -2.98772214E+00 -1.82981315E+00
  2.25373840E+00 -2.98772214E+00  1.49619887E+00  2.27567811E+00 -3.62229311E+00
  1.49619887E+00  2.27567811E+00 -3.62229311E+00  1.49619887E+00  2.27567811E+00
 -3.62229311E+00  1.49619887E+00  2.27567811E+00 -3.62229311E+00 -1.49619887E+00
 -2.27567811E+00 -3.62229311E+00 -1.49619887E+00 -2.27567811E+00 -3.62229311E+00
 -1.49619887E+00 -2.27567811E+00 -3.62229311E+00 -1.49619887E+00 -2.27567811E+00
 -3.62229311E+00  1.82981315E+00 -2.25373840E+00 -2.98772214E+00  1.82981315E+00
 -2.25373840E+00 -2.98772214E+00  1.82981315E+00 -2.25373840E+00 -2.98772214E+00
  1.82981315E+00 -2.25373840E+00 -2.98772214E+00
Num ILSW                                   I              100
ILSW                                       I   N=         100
           0           1           0           0           2           0
           0           0           0           0         402          -1
           5           0           0           0           2           0
           0           0           1           0           1           0
           1           0           0           0           0           0
           0           0      100000           0          -1           0
           0           0           0           0           0           0
           0           0           0           1           0           0
           0 -2000000000           1           0           0           0
           0           0         141          52           0           0
           0           0           5           0           0           0
           0           0           0           0           0           1
           0           0           0           0           0           0
           0           0           0           0           0           0
           0           0           0           0           0           0
           0           0           0           0           0           0
           0           0           0           0
Num RLSW                                   I               52
RLSW                                       R   N=          52
  8.00000000E-01  7.20000000E-01  1.00000000E+00  8.10000000E-01  2.00000000E-01
  0.00000000E+00  0.00000000E+00  1.00000000E+00  0.00000000E+00  0.00000000E+00
  0.00000000E+00  0.00000000E+00  1.00000000E+00  0.00000000E+00  0.00000000E+00
  0.00000000E+00  0.00000000E+00  1.00000000E+00  0.00000000E+00  0.00000000E+00
  0.00000000E+00  0.00000000E+00  1.00000000E+00  0.00000000E+00  0.00000000E+00
  0.00000000E+00  0.00000000E+00  1.00000000E+00  0.00000000E+00  0.00000000E+00
  0.00000000E+00  0.00000000E+00  1.00000000E+00  0.00000000E+00  0.00000000E+00
  0.00000000E+00  0.00000000E+00  0.00000000E+00  1.00000000E+00  1.00000000E+00
  0.00000000E+00  1.00000000E+00  0.00000000E+00  0.00000000E+00  0.00000000E+00
  0.00000000E+00  0.00000000E+00  0.00000000E+00  0.00000000E+00  0.00000000E+00
  0.00000000E+00  0.00000000E+00
MxBond                                     I                4
NBond                                      I   N=          10
           4           4           2           3           1           2
           1           1           1           1
IBond                                      I   N=          40
           2           6           7           8           1           3
           9          10           2           4           0           0
           3           5           6           0           4           0
           0           0           1           4           0           0
           1           0           0           0           1           0
           0           0           2           0           0           0
           2           0           0           0
RBond                                      R   N=          40
  1.00000000E+00  1.00000000E+00  1.00000000E+00  1.00000000E+00  1.00000000E+00
  1.00000000E+00  1.00000000E+00  1.00000000E+00  1.00000000E+00  1.50000000E+00
  0.00000000E+00  0.00000000E+00  1.50000000E+00  2.00000000E+00  1.50000000E+00
  0.00000000E+00  2.00000000E+00  0.00000000E+00  0.00000000E+00  0.00000000E+00
  1.00000000E+00  1.50000000E+00  0.00000000E+00  0.00000000E+00  1.00000000E+00
  0.00000000E+00  0.00000000E+00  0.00000000E+00  1.00000000E+00  0.00000000E+00
  0.00000000E+00  0.00000000E+00  1.00000000E+00  0.00000000E+00  0.00000000E+00
  0.00000000E+00  1.00000000E+00  0.00000000E+00  0.00000000E+00  0.00000000E+00
Virial Ratio                               R      2.009067540102904E+00
SCF Energy                                 R     -3.424434061625108E+02
Total Energy                               R     -3.424434061625108E+02
RMS Force                                  R      2.152081603861112E-05
RMS Density                                R      1.747070334773214E-09
NImag                                      I                0
Job Status                                 I                1
Nuclear derivative order                   I                2
PCM-NSphere                                I               10
PCM-NGenSphere                             I               10
PCM-NOrd                                   I   N=          10
           1           2           3           4           5           6
           7           8           9          10
PCM-SphereRadii                            R   N=          10
  4.00253442E+00  4.00253442E+00  3.63772279E+00  4.00253442E+00  3.63772279E+00
  3.63772279E+00  2.99956228E+00  2.99956228E+00  2.99956228E+00  2.99956228E+00
PCM-SphereLoc                              R   N=          30
  1.78954077E-16  1.44644241E+00 -2.47934390E+00 -3.43000508E-16 -1.44644241E+00
 -2.47934390E+00 -4.91670333E-01 -2.04572336E+00  1.52049791E-01 -4.42433993E-17
 -2.00510739E-16  1.59105356E+00 -2.39311163E-17 -4.91917613E-16  3.87412991E+00
  4.91670333E-01  2.04572336E+00  1.52049791E-01 -1.82981315E+00  2.25373840E+00
 -2.98772214E+00  1.49619887E+00  2.27567811E+00 -3.62229311E+00 -1.49619887E+00
 -2.27567811E+00 -3.62229311E+00  1.82981315E+00 -2.25373840E+00 -2.98772214E+00
External E-field                           R   N=          35
  0.00000000E+00  0.00000000E+00  0.00000000E+00  0.00000000E+00  0.00000000E+00
  0.00000000E+00  0.00000000E+00  0.00000000E+00  0.00000000E+00  0.00000000E+00
  0.00000000E+00  0.00000000E+00  0.00000000E+00  0.00000000E+00  0.00000000E+00
  0.00000000E+00  0.00000000E+00  0.00000000E+00  0.00000000E+00  0.00000000E+00
  0.00000000E+00  0.00000000E+00  0.00000000E+00  0.00000000E+00  0.00000000E+00
  0.00000000E+00  0.00000000E+00  0.00000000E+00  0.00000000E+00  0.00000000E+00
  0.00000000E+00  0.00000000E+00  0.00000000E+00  0.00000000E+00  0.00000000E+00
IOpCl                                      I                0
IROHF                                      I                0
Alpha Orbital Energies                     R   N=         138
 -1.92270199E+01 -1.92270125E+01 -1.91645248E+01 -1.03848776E+01 -1.02713831E+01
 -1.02711645E+01 -1.17656728E+00 -1.06355874E+00 -1.05697113E+00 -7.92723509E-01
 -6.89991154E-01 -6.19652949E-01 -5.51768580E-01 -5.30012624E-01 -5.13706916E-01
 -4.61251480E-01 -4.52691537E-01 -4.47722755E-01 -3.95885411E-01 -3.90343203E-01
 -3.29825859E-01 -3.24472502E-01 -3.18651166E-01 -8.06020069E-03  8.23482241E-03
  9.90852142E-03  1.95802228E-02  2.31293893E-02  5.16254647E-02  5.66964790E-02
  6.55090906E-02  7.61445012E-02  7.70079743E-02  9.99500252E-02  1.09892757E-01
  1.20690266E-01  1.24303477E-01  1.33885463E-01  1.40542622E-01  1.46595741E-01
  1.55506476E-01  1.78603988E-01  1.91587322E-01  1.99637689E-01  2.14079594E-01
  2.28391503E-01  2.42102087E-01  2.48600336E-01  2.73107783E-01  2.73563583E-01
  2.79403500E-01  2.86413738E-01  2.99266703E-01  3.21694203E-01  3.24005222E-01
  3.37780771E-01  3.60638780E-01  3.64538645E-01  3.72364770E-01  3.81456132E-01
  3.82960051E-01  4.97044263E-01  6.38176086E-01  6.51166074E-01  6.86346279E-01
  6.91804997E-01  7.23842026E-01  7.70919263E-01  7.75939622E-01  8.62611055E-01
  8.74340736E-01  9.32323269E-01  9.73352170E-01  1.00392265E+00  1.06145453E+00
  1.06326677E+00  1.12990899E+00  1.15532280E+00  1.20315187E+00  1.22029630E+00
  1.25172269E+00  1.27754515E+00  1.28542148E+00  1.29386584E+00  1.31255106E+00
  1.34039935E+00  1.39333453E+00  1.40659461E+00  1.43780802E+00  1.50929082E+00
  1.56308389E+00  1.59640302E+00  1.64240626E+00  1.67571878E+00  1.76486059E+00
  1.78427611E+00  1.81926478E+00  1.82045551E+00  1.85474219E+00  1.89929588E+00
  1.90454068E+00  1.91997675E+00  1.93513032E+00  1.96990656E+00  1.98965376E+00
  2.02872435E+00  2.09673327E+00  2.15241175E+00  2.20996676E+00  2.23706204E+00
  2.36552186E+00  2.43189169E+00  2.44426291E+00  2.48313520E+00  2.54414550E+00
  2.55733241E+00  2.61289608E+00  2.68936856E+00  2.69452623E+00  2.77152733E+00
  2.78446490E+00  2.81822087E+00  2.83069199E+00  2.89290102E+00  2.98227556E+00
  3.08380610E+00  3.18779810E+00  3.19935282E+00  3.26050646E+00  3.32785361E+00
  3.39997489E+00  3.51503389E+00  4.13602248E+00  4.31295472E+00  4.42438463E+00
  4.52129967E+00  4.56542830E+00  4.63192795E+00
Alpha MO coefficients                      R   N=       19044
  2.95995401E-05  1.56733634E-04 -3.27502663E-05 -3.09142771E-05 -2.11504958E-04