EMC_B3LYP_6-31ppgd,p_pcm_Acetone                                        
Freq      RB3LYP                                                      6-31++G(d,p)        
Number of atoms                            I               15
Info1-9                                    I   N=           9
          24          24        1002           0           0         100
           6          18        -502
Full Title                                 C   N=           3
EMC_B3LYP_6-31ppgd,p_pcm_Acetone    
Route                                      C   N=           6
# opt freq B3LYP/6-31++g(d,p) em=gd3bj scrf=(pcm,solvent=Ace
tone)       
Charge                                     I                0
Multiplicity                               I                1
Number of electrons                        I               56
Number of alpha electrons                  I               28
Number of beta electrons                   I               28
Number of basis functions                  I              181
Number of independent functions            I              181
Number of point charges in /Mol/           I                0
Number of translation vectors              I                0
Atomic numbers                             I   N=          15
           6           6           8           6           8           8
           6           1           1           1           1           1
           1           1           1
Nuclear charges                            R   N=          15
  6.00000000E+00  6.00000000E+00  8.00000000E+00  6.00000000E+00  8.00000000E+00
  8.00000000E+00  6.00000000E+00  1.00000000E+00  1.00000000E+00  1.00000000E+00
  1.00000000E+00  1.00000000E+00  1.00000000E+00  1.00000000E+00  1.00000000E+00
Current cartesian coordinates              R   N=          45
  5.74034971E+00 -8.48275656E-01 -7.97331348E-05  3.41990263E+00  8.24537882E-01
 -2.13126774E-05  1.21967178E+00 -8.30098840E-01  9.70090340E-05 -1.02855673E+00
  3.13091481E-01  1.64815393E-04 -1.39282047E+00  2.58744642E+00 -1.00986198E-05
 -2.82613734E+00 -1.46563415E+00  5.33788315E-05 -5.39827705E+00 -5.47669185E-01
 -1.13327929E-04  5.78896696E+00 -2.04995494E+00 -1.68122422E+00  7.43276887E+00
  3.39791676E-01 -1.66213440E-04  5.78909569E+00 -2.04989323E+00  1.68110515E+00
  3.32874357E+00  2.02523939E+00  1.67818248E+00  3.32861478E+00  2.02517738E+00
 -1.67826244E+00 -5.75177745E+00  5.81630824E-01 -1.68960655E+00 -5.75199126E+00
  5.81633288E-01  1.68933358E+00 -6.57064439E+00 -2.23743896E+00 -1.86758984E-04
Number of symbols in /Mol/                 I                0
Force Field                                I                0
Atom Types                                 C   N=          15
                                                            
                                                            
                                                            
Int Atom Types                             I   N=          15
           0           0           0           0           0           0
           0           0           0           0           0           0
           0           0           0
MM charges                                 R   N=          15
  0.00000000E+00  0.00000000E+00  0.00000000E+00  0.00000000E+00  0.00000000E+00
  0.00000000E+00  0.00000000E+00  0.00000000E+00  0.00000000E+00  0.00000000E+00
  0.00000000E+00  0.00000000E+00  0.00000000E+00  0.00000000E+00  0.00000000E+00
Integer atomic weights                     I   N=          15
          12          12          16          12          16          16
          12           1           1           1           1           1
           1           1           1
Real atomic weights                        R   N=          15
  1.20000000E+01  1.20000000E+01  1.59949146E+01  1.20000000E+01  1.59949146E+01
  1.59949146E+01  1.20000000E+01  1.00782504E+00  1.00782504E+00  1.00782504E+00
  1.00782504E+00  1.00782504E+00  1.00782504E+00  1.00782504E+00  1.00782504E+00
Atom fragment info                         I   N=          15
           0           0           0           0           0           0
           0           0           0           0           0           0
           0           0           0
Atom residue num                           I   N=          15
           0           0           0           0           0           0
           0           0           0           0           0           0
           0           0           0
Nuclear spins                              I   N=          15
           0           0           0           0           0           0
           0           1           1           1           1           1
           1           1           1
Nuclear ZEff                               R   N=          15
 -3.60000000E+00 -3.60000000E+00 -5.60000000E+00 -3.60000000E+00 -5.60000000E+00
 -5.60000000E+00 -3.60000000E+00 -1.00000000E+00 -1.00000000E+00 -1.00000000E+00
 -1.00000000E+00 -1.00000000E+00 -1.00000000E+00 -1.00000000E+00 -1.00000000E+00
Nuclear ZNuc                               R   N=          15
  6.00000000E+00  6.00000000E+00  8.00000000E+00  6.00000000E+00  8.00000000E+00
  8.00000000E+00  6.00000000E+00  1.00000000E+00  1.00000000E+00  1.00000000E+00
  1.00000000E+00  1.00000000E+00  1.00000000E+00  1.00000000E+00  1.00000000E+00
Nuclear QMom                               R   N=          15
  0.00000000E+00  0.00000000E+00  0.00000000E+00  0.00000000E+00  0.00000000E+00
  0.00000000E+00  0.00000000E+00  0.00000000E+00  0.00000000E+00  0.00000000E+00
  0.00000000E+00  0.00000000E+00  0.00000000E+00  0.00000000E+00  0.00000000E+00
Nuclear GFac                               R   N=          15
  0.00000000E+00  0.00000000E+00  0.00000000E+00  0.00000000E+00  0.00000000E+00
  0.00000000E+00  0.00000000E+00  2.79284600E+00  2.79284600E+00  2.79284600E+00
  2.79284600E+00  2.79284600E+00  2.79284600E+00  2.79284600E+00  2.79284600E+00
MicOpt                                     I   N=          15
          -1          -1          -1          -1          -1          -1
          -1          -1          -1          -1          -1          -1
          -1          -1          -1
Number of residues                         I                0
Number of secondary structures             I                0
Redundant internal dimensions              I   N=           4
          56          14          23          19
Redundant internal coordinate indices      I   N=         224
           1           2           0           0           1           8
           0           0           1           9           0           0
           1          10           0           0           2           3
           0           0           2          11           0           0
           2          12           0           0           3           4
           0           0           4           5           0           0
           4           6           0           0           6           7
           0           0           7          13           0           0
           7          14           0           0           7          15
           0           0           2           1           8           0
           2           1           9           0           2           1
          10           0           8           1           9           0
           8           1          10           0           9           1
          10           0           1           2           3           0
           1           2          11           0           1           2
          12           0           3           2          11           0
           3           2          12           0          11           2
          12           0           2           3           4           0
           3           4           5           0           3           4
           6           0           5           4           6           0
           4           6           7           0           6           7
          13           0           6           7          14           0
           6           7          15           0          13           7
          14           0          13           7          15           0
          14           7          15           0           8           1
           2           3           8           1           2          11
           8           1           2          12           9           1
           2           3           9           1           2          11
           9           1           2          12          10           1
           2           3          10           1           2          11
          10           1           2          12           1           2
           3           4          11           2           3           4
          12           2           3           4           2           3
           4           5           2           3           4           6
           3           4           6           7           5           4
           6           7           4           6           7          13
           4           6           7          14           4           6
           7          15
Redundant internal coordinates             R   N=          56
  2.86055585E+00  2.06703738E+00  2.06779753E+00  2.06703739E+00  2.75296903E+00
  2.06551739E+00  2.06551736E+00  2.52218468E+00  2.30334073E+00  2.52886554E+00
  2.73103688E+00  2.06268475E+00  2.06268482E+00  2.05663975E+00  1.93806051E+00
  1.90491354E+00  1.93806034E+00  1.89097495E+00  1.89967472E+00  1.89097485E+00
  1.87217800E+00  1.95601108E+00  1.95601091E+00  1.89028387E+00  1.89028595E+00
  1.89683840E+00  2.02638196E+00  2.20002138E+00  1.89105414E+00  2.19210977E+00
  2.01866903E+00  1.92354853E+00  1.92354642E+00  1.83455350E+00  1.91955389E+00
  1.93061576E+00  1.93061616E+00  1.05811968E+00  3.13065952E+00 -1.01442260E+00
 -3.14159117E+00 -1.06905133E+00  1.06905185E+00 -1.05811696E+00  1.01442288E+00
 -3.13065924E+00  3.14159180E+00  1.02709847E+00 -1.02709922E+00  7.88083972E-05
  3.14150262E+00 -3.14150316E+00 -7.83894036E-05  1.06092096E+00 -1.06092345E+00
  3.14159172E+00
ZRed-IntVec                                I   N=          56
           0           0           0           0           0           0
           0           0           0           0           0           0
           0           0           0           0           0           0
           0           0           0           0           0           0
           0           0           0           0           0           0
           0           0           0           0           0           0
           0           0           0           0           0           0
           0           0           0           0           0           0
           0           0           0           0           0           0
           0           0
ZRed-FPVec                                 R   N=          56
  0.00000000E+00  0.00000000E+00  0.00000000E+00  0.00000000E+00  0.00000000E+00
  0.00000000E+00  0.00000000E+00  0.00000000E+00  0.00000000E+00  0.00000000E+00
  0.00000000E+00  0.00000000E+00  0.00000000E+00  0.00000000E+00  0.00000000E+00
  0.00000000E+00  0.00000000E+00  0.00000000E+00  0.00000000E+00  0.00000000E+00
  0.00000000E+00  0.00000000E+00  0.00000000E+00  0.00000000E+00  0.00000000E+00
  0.00000000E+00  0.00000000E+00  0.00000000E+00  0.00000000E+00  0.00000000E+00
  0.00000000E+00  0.00000000E+00  0.00000000E+00  0.00000000E+00  0.00000000E+00
  0.00000000E+00  0.00000000E+00  0.00000000E+00  0.00000000E+00  0.00000000E+00
  0.00000000E+00  0.00000000E+00  0.00000000E+00  0.00000000E+00  0.00000000E+00
  0.00000000E+00  0.00000000E+00  0.00000000E+00  0.00000000E+00  0.00000000E+00
  0.00000000E+00  0.00000000E+00  0.00000000E+00  0.00000000E+00  0.00000000E+00
  0.00000000E+00
ZRed-Constraint1                           R   N=          56
  2.86055585E+00  2.06703738E+00  2.06779753E+00  2.06703739E+00  2.75296903E+00
  2.06551739E+00  2.06551736E+00  2.52218468E+00  2.30334073E+00  2.52886554E+00
  2.73103688E+00  2.06268475E+00  2.06268482E+00  2.05663975E+00  1.93806051E+00
  1.90491354E+00  1.93806034E+00  1.89097495E+00  1.89967472E+00  1.89097485E+00
  1.87217800E+00  1.95601108E+00  1.95601091E+00  1.89028387E+00  1.89028595E+00
  1.89683840E+00  2.02638196E+00  2.20002138E+00  1.89105414E+00  2.19210977E+00
  2.01866903E+00  1.92354853E+00  1.92354642E+00  1.83455350E+00  1.91955389E+00
  1.93061576E+00  1.93061616E+00  1.05811968E+00  3.13065952E+00 -1.01442260E+00
 -3.14159117E+00 -1.06905133E+00  1.06905185E+00 -1.05811696E+00  1.01442288E+00
 -3.13065924E+00  3.14159180E+00  1.02709847E+00 -1.02709922E+00  7.88083986E-05
  3.14150262E+00 -3.14150316E+00 -7.83894036E-05  1.06092096E+00 -1.06092345E+00
  3.14159172E+00
ZRed-Constraint2                           R   N=          56
  2.86558884E+00  2.06932454E+00  2.06654931E+00  2.06932467E+00  2.70292135E+00
  2.07089109E+00  2.07089116E+00  2.56304453E+00  2.30882354E+00  2.56313852E+00
  2.69425051E+00  2.06853579E+00  2.06853571E+00  2.06655319E+00  1.93057059E+00
  1.93561852E+00  1.93057103E+00  1.89972826E+00  1.86588450E+00  1.89972859E+00
  1.88909546E+00  1.91412458E+00  1.91412466E+00  1.91611882E+00  1.91611869E+00
  1.91409228E+00  1.99066618E+00  2.19733897E+00  1.88838560E+00  2.19746074E+00
  1.98673537E+00  1.92993043E+00  1.92992957E+00  1.88643451E+00  1.93288159E+00
  1.89160955E+00  1.89160984E+00  1.03200566E+00  3.12211539E+00 -1.05810396E+00
 -3.14159120E+00 -1.05148147E+00  1.05148449E+00 -1.03200204E+00  1.05810769E+00
 -3.12211166E+00  3.14159193E+00  1.05273505E+00 -1.05273649E+00 -1.35026229E-06
  3.14159101E+00  3.14159182E+00 -1.13170371E-06  1.07363923E+00 -1.07364614E+00
  3.14158927E+00
SymInf integers                            I   N=          26
           1           1           1           1           1           0
           0           0           0           0           0           0
           0           0           0           0           0           0
           0           0           0           0           0           0
           0           0
RotTr to input orientation                 R   N=          12
  9.95594734E-01  1.82314318E-02  9.19714098E-02 -9.27138804E-02  4.52374521E-02
  9.94664622E-01  1.39736080E-02 -9.98809886E-01  4.67284758E-02 -4.91012780E-01
 -6.69231224E-03  8.67080342E-02
Number of contracted shells                I               67
Number of primitive shells                 I              132
Pure/Cartesian d shells                    I                1
Pure/Cartesian f shells                    I                0
Highest angular momentum                   I                2
Largest degree of contraction              I                6
Shell types                                I   N=          67
           0          -1          -1          -1           2           0
          -1          -1          -1           2           0          -1
          -1          -1           2           0          -1          -1
          -1           2           0          -1          -1          -1
           2           0          -1          -1          -1           2
           0          -1          -1          -1           2           0
           0           0           1           0           0           0
           1           0           0           0           1           0
           0           0           1           0           0           0
           1           0           0           0           1           0
           0           0           1           0           0           0
           1
Number of primitives per shell             I   N=          67
           6           3           1           1           1           6
           3           1           1           1           6           3
           1           1           1           6           3           1
           1           1           6           3           1           1
           1           6           3           1           1           1
           6           3           1           1           1           3
           1           1           1           3           1           1
           1           3           1           1           1           3
           1           1           1           3           1           1
           1           3           1           1           1           3
           1           1           1           3           1           1
           1
Shell to atom map                          I   N=          67
           1           1           1           1           1           2
           2           2           2           2           3           3
           3           3           3           4           4           4
           4           4           5           5           5           5
           5           6           6           6           6           6
           7           7           7           7           7           8
           8           8           8           9           9           9
           9          10          10          10          10          11
          11          11          11          12          12          12
          12          13          13          13          13          14
          14          14          14          15          15          15
          15
Primitive exponents                        R   N=         132
  3.04752488E+03  4.57369518E+02  1.03948685E+02  2.92101553E+01  9.28666296E+00
  3.16392696E+00  7.86827235E+00  1.88128854E+00  5.44249258E-01  1.68714478E-01
  4.38000000E-02  8.00000000E-01  3.04752488E+03  4.57369518E+02  1.03948685E+02
  2.92101553E+01  9.28666296E+00  3.16392696E+00  7.86827235E+00  1.88128854E+00
  5.44249258E-01  1.68714478E-01  4.38000000E-02  8.00000000E-01  5.48467166E+03
  8.25234946E+02  1.88046958E+02  5.29645000E+01  1.68975704E+01  5.79963534E+00
  1.55396162E+01  3.59993359E+00  1.01376175E+00  2.70005823E-01  8.45000000E-02
  8.00000000E-01  3.04752488E+03  4.57369518E+02  1.03948685E+02  2.92101553E+01
  9.28666296E+00  3.16392696E+00  7.86827235E+00  1.88128854E+00  5.44249258E-01
  1.68714478E-01  4.38000000E-02  8.00000000E-01  5.48467166E+03  8.25234946E+02
  1.88046958E+02  5.29645000E+01  1.68975704E+01  5.79963534E+00  1.55396162E+01
  3.59993359E+00  1.01376175E+00  2.70005823E-01  8.45000000E-02  8.00000000E-01
  5.48467166E+03  8.25234946E+02  1.88046958E+02  5.29645000E+01  1.68975704E+01
  5.79963534E+00  1.55396162E+01  3.59993359E+00  1.01376175E+00  2.70005823E-01
  8.45000000E-02  8.00000000E-01  3.04752488E+03  4.57369518E+02  1.03948685E+02
  2.92101553E+01  9.28666296E+00  3.16392696E+00  7.86827235E+00  1.88128854E+00
  5.44249258E-01  1.68714478E-01  4.38000000E-02  8.00000000E-01  1.87311370E+01
  2.82539436E+00  6.40121692E-01  1.61277759E-01  3.60000000E-02  1.10000000E+00
  1.87311370E+01  2.82539436E+00  6.40121692E-01  1.61277759E-01  3.60000000E-02
  1.10000000E+00  1.87311370E+01  2.82539436E+00  6.40121692E-01  1.61277759E-01
  3.60000000E-02  1.10000000E+00  1.87311370E+01  2.82539436E+00  6.40121692E-01
  1.61277759E-01  3.60000000E-02  1.10000000E+00  1.87311370E+01  2.82539436E+00
  6.40121692E-01  1.61277759E-01  3.60000000E-02  1.10000000E+00  1.87311370E+01
  2.82539436E+00  6.40121692E-01  1.61277759E-01  3.60000000E-02  1.10000000E+00
  1.87311370E+01  2.82539436E+00  6.40121692E-01  1.61277759E-01  3.60000000E-02
  1.10000000E+00  1.87311370E+01  2.82539436E+00  6.40121692E-01  1.61277759E-01
  3.60000000E-02  1.10000000E+00
Contraction coefficients                   R   N=         132
  1.83473713E-03  1.40373228E-02  6.88426223E-02  2.32184443E-01  4.67941348E-01
  3.62311985E-01 -1.19332420E-01 -1.60854152E-01  1.14345644E+00  1.00000000E+00
  1.00000000E+00  1.00000000E+00  1.83473713E-03  1.40373228E-02  6.88426223E-02
  2.32184443E-01  4.67941348E-01  3.62311985E-01 -1.19332420E-01 -1.60854152E-01
  1.14345644E+00  1.00000000E+00  1.00000000E+00  1.00000000E+00  1.83107443E-03
  1.39501722E-02  6.84450781E-02  2.32714336E-01  4.70192898E-01  3.58520853E-01
 -1.10777550E-01 -1.48026263E-01  1.13076702E+00  1.00000000E+00  1.00000000E+00
  1.00000000E+00  1.83473713E-03  1.40373228E-02  6.88426223E-02  2.32184443E-01
  4.67941348E-01  3.62311985E-01 -1.19332420E-01 -1.60854152E-01  1.14345644E+00
  1.00000000E+00  1.00000000E+00  1.00000000E+00  1.83107443E-03  1.39501722E-02
  6.84450781E-02  2.32714336E-01  4.70192898E-01  3.58520853E-01 -1.10777550E-01
 -1.48026263E-01  1.13076702E+00  1.00000000E+00  1.00000000E+00  1.00000000E+00
  1.83107443E-03  1.39501722E-02  6.84450781E-02  2.32714336E-01  4.70192898E-01
  3.58520853E-01 -1.10777550E-01 -1.48026263E-01  1.13076702E+00  1.00000000E+00
  1.00000000E+00  1.00000000E+00  1.83473713E-03  1.40373228E-02  6.88426223E-02
  2.32184443E-01  4.67941348E-01  3.62311985E-01 -1.19332420E-01 -1.60854152E-01
  1.14345644E+00  1.00000000E+00  1.00000000E+00  1.00000000E+00  3.34946043E-02
  2.34726953E-01  8.13757326E-01  1.00000000E+00  1.00000000E+00  1.00000000E+00
  3.34946043E-02  2.34726953E-01  8.13757326E-01  1.00000000E+00  1.00000000E+00
  1.00000000E+00  3.34946043E-02  2.34726953E-01  8.13757326E-01  1.00000000E+00
  1.00000000E+00  1.00000000E+00  3.34946043E-02  2.34726953E-01  8.13757326E-01
  1.00000000E+00  1.00000000E+00  1.00000000E+00  3.34946043E-02  2.34726953E-01
  8.13757326E-01  1.00000000E+00  1.00000000E+00  1.00000000E+00  3.34946043E-02
  2.34726953E-01  8.13757326E-01  1.00000000E+00  1.00000000E+00  1.00000000E+00
  3.34946043E-02  2.34726953E-01  8.13757326E-01  1.00000000E+00  1.00000000E+00
  1.00000000E+00  3.34946043E-02  2.34726953E-01  8.13757326E-01  1.00000000E+00
  1.00000000E+00  1.00000000E+00
P(S=P) Contraction coefficients            R   N=         132
  0.00000000E+00  0.00000000E+00  0.00000000E+00  0.00000000E+00  0.00000000E+00
  0.00000000E+00  6.89990666E-02  3.16423961E-01  7.44308291E-01  1.00000000E+00
  1.00000000E+00  0.00000000E+00  0.00000000E+00  0.00000000E+00  0.00000000E+00
  0.00000000E+00  0.00000000E+00  0.00000000E+00  6.89990666E-02  3.16423961E-01
  7.44308291E-01  1.00000000E+00  1.00000000E+00  0.00000000E+00  0.00000000E+00
  0.00000000E+00  0.00000000E+00  0.00000000E+00  0.00000000E+00  0.00000000E+00
  7.08742682E-02  3.39752839E-01  7.27158577E-01  1.00000000E+00  1.00000000E+00
  0.00000000E+00  0.00000000E+00  0.00000000E+00  0.00000000E+00  0.00000000E+00
  0.00000000E+00  0.00000000E+00  6.89990666E-02  3.16423961E-01  7.44308291E-01
  1.00000000E+00  1.00000000E+00  0.00000000E+00  0.00000000E+00  0.00000000E+00
  0.00000000E+00  0.00000000E+00  0.00000000E+00  0.00000000E+00  7.08742682E-02
  3.39752839E-01  7.27158577E-01  1.00000000E+00  1.00000000E+00  0.00000000E+00
  0.00000000E+00  0.00000000E+00  0.00000000E+00  0.00000000E+00  0.00000000E+00
  0.00000000E+00  7.08742682E-02  3.39752839E-01  7.27158577E-01  1.00000000E+00
  1.00000000E+00  0.00000000E+00  0.00000000E+00  0.00000000E+00  0.00000000E+00
  0.00000000E+00  0.00000000E+00  0.00000000E+00  6.89990666E-02  3.16423961E-01
  7.44308291E-01  1.00000000E+00  1.00000000E+00  0.00000000E+00  0.00000000E+00
  0.00000000E+00  0.00000000E+00  0.00000000E+00  0.00000000E+00  0.00000000E+00
  0.00000000E+00  0.00000000E+00  0.00000000E+00  0.00000000E+00  0.00000000E+00
  0.00000000E+00  0.00000000E+00  0.00000000E+00  0.00000000E+00  0.00000000E+00
  0.00000000E+00  0.00000000E+00  0.00000000E+00  0.00000000E+00  0.00000000E+00
  0.00000000E+00  0.00000000E+00  0.00000000E+00  0.00000000E+00  0.00000000E+00
  0.00000000E+00  0.00000000E+00  0.00000000E+00  0.00000000E+00  0.00000000E+00
  0.00000000E+00  0.00000000E+00  0.00000000E+00  0.00000000E+00  0.00000000E+00
  0.00000000E+00  0.00000000E+00  0.00000000E+00  0.00000000E+00  0.00000000E+00
  0.00000000E+00  0.00000000E+00  0.00000000E+00  0.00000000E+00  0.00000000E+00
  0.00000000E+00  0.00000000E+00
Coordinates of each shell                  R   N=         201
  5.74034971E+00 -8.48275656E-01 -7.97331348E-05  5.74034971E+00 -8.48275656E-01
 -7.97331348E-05  5.74034971E+00 -8.48275656E-01 -7.97331348E-05  5.74034971E+00
 -8.48275656E-01 -7.97331348E-05  5.74034971E+00 -8.48275656E-01 -7.97331348E-05
  3.41990263E+00  8.24537882E-01 -2.13126774E-05  3.41990263E+00  8.24537882E-01
 -2.13126774E-05  3.41990263E+00  8.24537882E-01 -2.13126774E-05  3.41990263E+00
  8.24537882E-01 -2.13126774E-05  3.41990263E+00  8.24537882E-01 -2.13126774E-05
  1.21967178E+00 -8.30098840E-01  9.70090340E-05  1.21967178E+00 -8.30098840E-01
  9.70090340E-05  1.21967178E+00 -8.30098840E-01  9.70090340E-05  1.21967178E+00
 -8.30098840E-01  9.70090340E-05  1.21967178E+00 -8.30098840E-01  9.70090340E-05
 -1.02855673E+00  3.13091481E-01  1.64815393E-04 -1.02855673E+00  3.13091481E-01
  1.64815393E-04 -1.02855673E+00  3.13091481E-01  1.64815393E-04 -1.02855673E+00
  3.13091481E-01  1.64815393E-04 -1.02855673E+00  3.13091481E-01  1.64815393E-04
 -1.39282047E+00  2.58744642E+00 -1.00986198E-05 -1.39282047E+00  2.58744642E+00
 -1.00986198E-05 -1.39282047E+00  2.58744642E+00 -1.00986198E-05 -1.39282047E+00
  2.58744642E+00 -1.00986198E-05 -1.39282047E+00  2.58744642E+00 -1.00986198E-05
 -2.82613734E+00 -1.46563415E+00  5.33788315E-05 -2.82613734E+00 -1.46563415E+00
  5.33788315E-05 -2.82613734E+00 -1.46563415E+00  5.33788315E-05 -2.82613734E+00
 -1.46563415E+00  5.33788315E-05 -2.82613734E+00 -1.46563415E+00  5.33788315E-05
 -5.39827705E+00 -5.47669185E-01 -1.13327929E-04 -5.39827705E+00 -5.47669185E-01
 -1.13327929E-04 -5.39827705E+00 -5.47669185E-01 -1.13327929E-04 -5.39827705E+00
 -5.47669185E-01 -1.13327929E-04 -5.39827705E+00 -5.47669185E-01 -1.13327929E-04
  5.78896696E+00 -2.04995494E+00 -1.68122422E+00  5.78896696E+00 -2.04995494E+00
 -1.68122422E+00  5.78896696E+00 -2.04995494E+00 -1.68122422E+00  5.78896696E+00
 -2.04995494E+00 -1.68122422E+00  7.43276887E+00  3.39791676E-01 -1.66213440E-04
  7.43276887E+00  3.39791676E-01 -1.66213440E-04  7.43276887E+00  3.39791676E-01
 -1.66213440E-04  7.43276887E+00  3.39791676E-01 -1.66213440E-04  5.78909569E+00
 -2.04989323E+00  1.68110515E+00  5.78909569E+00 -2.04989323E+00  1.68110515E+00
  5.78909569E+00 -2.04989323E+00  1.68110515E+00  5.78909569E+00 -2.04989323E+00
  1.68110515E+00  3.32874357E+00  2.02523939E+00  1.67818248E+00  3.32874357E+00
  2.02523939E+00  1.67818248E+00  3.32874357E+00  2.02523939E+00  1.67818248E+00
  3.32874357E+00  2.02523939E+00  1.67818248E+00  3.32861478E+00  2.02517738E+00
 -1.67826244E+00  3.32861478E+00  2.02517738E+00 -1.67826244E+00  3.32861478E+00
  2.02517738E+00 -1.67826244E+00  3.32861478E+00  2.02517738E+00 -1.67826244E+00
 -5.75177745E+00  5.81630824E-01 -1.68960655E+00 -5.75177745E+00  5.81630824E-01
 -1.68960655E+00 -5.75177745E+00  5.81630824E-01 -1.68960655E+00 -5.75177745E+00
  5.81630824E-01 -1.68960655E+00 -5.75199126E+00  5.81633288E-01  1.68933358E+00
 -5.75199126E+00  5.81633288E-01  1.68933358E+00 -5.75199126E+00  5.81633288E-01
  1.68933358E+00 -5.75199126E+00  5.81633288E-01  1.68933358E+00 -6.57064439E+00
 -2.23743896E+00 -1.86758984E-04 -6.57064439E+00 -2.23743896E+00 -1.86758984E-04
 -6.57064439E+00 -2.23743896E+00 -1.86758984E-04 -6.57064439E+00 -2.23743896E+00
 -1.86758984E-04
Num ILSW                                   I              100
ILSW                                       I   N=         100
           0           1           0           0           2           0
           0           0           0           0         402          -1
           5           0           0           0           2           0
           0           0           1           0           1           0
           1           0           0           0           0           0
           0           0      100000           0          -1           0
           0           0           0           0           0           0
           0           0           0           1           0           0
           0 -2000000000           1           0           0           0
           0           0         141          52           0           0
           0           0           5           0           0           0
           0           0           0           0           0           1
           0           0           0           0           0           0
           0           0           0           0           0           0
           0           0           0           0           0           0
           0           0           0           0           0           0
           0           0           0           0
Num RLSW                                   I               52
RLSW                                       R   N=          52
  8.00000000E-01  7.20000000E-01  1.00000000E+00  8.10000000E-01  2.00000000E-01
  0.00000000E+00  0.00000000E+00  1.00000000E+00  0.00000000E+00  0.00000000E+00
  0.00000000E+00  0.00000000E+00  1.00000000E+00  0.00000000E+00  0.00000000E+00
  0.00000000E+00  0.00000000E+00  1.00000000E+00  0.00000000E+00  0.00000000E+00
  0.00000000E+00  0.00000000E+00  1.00000000E+00  0.00000000E+00  0.00000000E+00
  0.00000000E+00  0.00000000E+00  1.00000000E+00  0.00000000E+00  0.00000000E+00
  0.00000000E+00  0.00000000E+00  1.00000000E+00  0.00000000E+00  0.00000000E+00
  0.00000000E+00  0.00000000E+00  0.00000000E+00  1.00000000E+00  1.00000000E+00
  0.00000000E+00  1.00000000E+00  0.00000000E+00  0.00000000E+00  0.00000000E+00
  0.00000000E+00  0.00000000E+00  0.00000000E+00  0.00000000E+00  0.00000000E+00
  0.00000000E+00  0.00000000E+00
MxBond                                     I                4
NBond                                      I   N=          15
           4           4           2           3           1           2
           4           1           1           1           1           1