THF                                                                     
Freq      RB3LYP                                                      6-31G(d)            
Number of atoms                            I               13
Info1-9                                    I   N=           9
          22          22        1002           0           0         100
           6          18        -502
Full Title                                 C   N=           1
THF         
Route                                      C   N=           3
# opt freq B3LYP/6-31G(d) em=gd3bj  
Charge                                     I                0
Multiplicity                               I                1
Number of electrons                        I               40
Number of alpha electrons                  I               20
Number of beta electrons                   I               20
Number of basis functions                  I               91
Number of independent functions            I               91
Number of point charges in /Mol/           I                0
Number of translation vectors              I                0
Atomic numbers                             I   N=          13
           6           6           6           8           6           1
           1           1           1           1           1           1
           1
Nuclear charges                            R   N=          13
  6.00000000E+00  6.00000000E+00  6.00000000E+00  8.00000000E+00  6.00000000E+00
  1.00000000E+00  1.00000000E+00  1.00000000E+00  1.00000000E+00  1.00000000E+00
  1.00000000E+00  1.00000000E+00  1.00000000E+00
Current cartesian coordinates              R   N=          39
  1.38386710E+00 -1.88117624E+00  4.34038467E-01 -1.38386862E+00 -1.88117494E+00
 -4.34039218E-01 -2.19973695E+00  8.11786247E-01  2.51762920E-01  5.58037796E-07
  2.36420758E+00 -1.31247919E-06  2.19973784E+00  8.11785012E-01 -2.51761261E-01
  1.49263902E+00 -2.17021972E+00  2.48282050E+00  2.54018149E+00 -3.32893492E+00
 -4.83254488E-01 -1.49264091E+00 -2.17021637E+00 -2.48282152E+00 -2.54018397E+00
 -3.32893360E+00  4.83252586E-01 -2.89116117E+00  9.03098845E-01  2.21180469E+00
 -3.68372022E+00  1.55556452E+00 -9.86833613E-01  2.89116583E+00  9.03098307E-01
 -2.21180160E+00  3.68371923E+00  1.55556180E+00  9.86838493E-01
Number of symbols in /Mol/                 I                0
Force Field                                I                0
Atom Types                                 C   N=          13
                                                            
                                                            
                                    
Int Atom Types                             I   N=          13
           0           0           0           0           0           0
           0           0           0           0           0           0
           0
MM charges                                 R   N=          13
  0.00000000E+00  0.00000000E+00  0.00000000E+00  0.00000000E+00  0.00000000E+00
  0.00000000E+00  0.00000000E+00  0.00000000E+00  0.00000000E+00  0.00000000E+00
  0.00000000E+00  0.00000000E+00  0.00000000E+00
Integer atomic weights                     I   N=          13
          12          12          12          16          12           1
           1           1           1           1           1           1
           1
Real atomic weights                        R   N=          13
  1.20000000E+01  1.20000000E+01  1.20000000E+01  1.59949146E+01  1.20000000E+01
  1.00782504E+00  1.00782504E+00  1.00782504E+00  1.00782504E+00  1.00782504E+00
  1.00782504E+00  1.00782504E+00  1.00782504E+00
Atom fragment info                         I   N=          13
           0           0           0           0           0           0
           0           0           0           0           0           0
           0
Atom residue num                           I   N=          13
           0           0           0           0           0           0
           0           0           0           0           0           0
           0
Nuclear spins                              I   N=          13
           0           0           0           0           0           1
           1           1           1           1           1           1
           1
Nuclear ZEff                               R   N=          13
 -3.60000000E+00 -3.60000000E+00 -3.60000000E+00 -5.60000000E+00 -3.60000000E+00
 -1.00000000E+00 -1.00000000E+00 -1.00000000E+00 -1.00000000E+00 -1.00000000E+00
 -1.00000000E+00 -1.00000000E+00 -1.00000000E+00
Nuclear ZNuc                               R   N=          13
  6.00000000E+00  6.00000000E+00  6.00000000E+00  8.00000000E+00  6.00000000E+00
  1.00000000E+00  1.00000000E+00  1.00000000E+00  1.00000000E+00  1.00000000E+00
  1.00000000E+00  1.00000000E+00  1.00000000E+00
Nuclear QMom                               R   N=          13
  0.00000000E+00  0.00000000E+00  0.00000000E+00  0.00000000E+00  0.00000000E+00
  0.00000000E+00  0.00000000E+00  0.00000000E+00  0.00000000E+00  0.00000000E+00
  0.00000000E+00  0.00000000E+00  0.00000000E+00
Nuclear GFac                               R   N=          13
  0.00000000E+00  0.00000000E+00  0.00000000E+00  0.00000000E+00  0.00000000E+00
  2.79284600E+00  2.79284600E+00  2.79284600E+00  2.79284600E+00  2.79284600E+00
  2.79284600E+00  2.79284600E+00  2.79284600E+00
MicOpt                                     I   N=          13
          -1          -1          -1          -1          -1          -1
          -1          -1          -1          -1          -1          -1
          -1
Number of residues                         I                0
Number of secondary structures             I                0
Redundant internal dimensions              I   N=           4
          71          13          25          33
Redundant internal coordinate indices      I   N=         284
           1           2           0           0           1           5
           0           0           1           6           0           0
           1           7           0           0           2           3
           0           0           2           8           0           0
           2           9           0           0           3           4
           0           0           3          10           0           0
           3          11           0           0           4           5
           0           0           5          12           0           0
           5          13           0           0           2           1
           5           0           2           1           6           0
           2           1           7           0           5           1
           6           0           5           1           7           0
           6           1           7           0           1           2
           3           0           1           2           8           0
           1           2           9           0           3           2
           8           0           3           2           9           0
           8           2           9           0           2           3
           4           0           2           3          10           0
           2           3          11           0           4           3
          10           0           4           3          11           0
          10           3          11           0           3           4
           5           0           1           5           4           0
           1           5          12           0           1           5
          13           0           4           5          12           0
           4           5          13           0          12           5
          13           0           5           1           2           3
           5           1           2           8           5           1
           2           9           6           1           2           3
           6           1           2           8           6           1
           2           9           7           1           2           3
           7           1           2           8           7           1
           2           9           2           1           5           4
           2           1           5          12           2           1
           5          13           6           1           5           4
           6           1           5          12           6           1
           5          13           7           1           5           4
           7           1           5          12           7           1
           5          13           1           2           3           4
           1           2           3          10           1           2
           3          11           8           2           3           4
           8           2           3          10           8           2
           3          11           9           2           3           4
           9           2           3          10           9           2
           3          11           2           3           4           5
          10           3           4           5          11           3
           4           5           3           4           5           1
           3           4           5          12           3           4
           5          13
Redundant internal coordinates             R   N=          71
  2.90067576E+00  2.89620555E+00  2.07192792E+00  2.06748508E+00  2.89620539E+00
  2.07192792E+00  2.06748508E+00  2.70411582E+00  2.08042524E+00  2.07111898E+00
  2.70411594E+00  2.08042517E+00  2.07111902E+00  1.77003995E+00  1.92411800E+00
  1.98326880E+00  1.92737815E+00  1.96979793E+00  1.88774615E+00  1.77003975E+00
  1.92411809E+00  1.98326878E+00  1.92737809E+00  1.96979803E+00  1.88774624E+00
  1.85730283E+00  1.93641341E+00  1.97594003E+00  1.91014829E+00  1.89760167E+00
  1.88549926E+00  1.91859350E+00  1.85730305E+00  1.93641357E+00  1.97593979E+00
  1.91014794E+00  1.89760191E+00  1.88549922E+00 -6.44088984E-01  1.39799400E+00
 -2.76288232E+00  1.39799414E+00 -2.84310818E+00 -7.20799193E-01 -2.76288235E+00
 -7.20799359E-01  1.40150962E+00  5.44536155E-01 -1.53190090E+00  2.62798441E+00
 -1.49516870E+00  2.71157955E+00  5.88279560E-01  2.67271127E+00  5.96274213E-01
 -1.52702578E+00  5.44538319E-01 -1.53189894E+00  2.62798627E+00 -1.49516650E+00
  2.71158154E+00  5.88281452E-01  2.67271334E+00  5.96276077E-01 -1.52702402E+00
 -2.13480788E-01  1.88006083E+00 -2.34727657E+00 -2.13477104E-01  1.88006464E+00
 -2.34727286E+00
ZRed-IntVec                                I   N=          71
           0           0           0           0           0           0
           0           0           0           0           0           0
           0           0           0           0           0           0
           0           0           0           0           0           0
           0           0           0           0           0           0
           0           0           0           0           0           0
           0           0           0           0           0           0
           0           0           0           0           0           0
           0           0           0           0           0           0
           0           0           0           0           0           0
           0           0           0           0           0           0
           0           0           0           0           0
ZRed-FPVec                                 R   N=          71
  0.00000000E+00  0.00000000E+00  0.00000000E+00  0.00000000E+00  0.00000000E+00
  0.00000000E+00  0.00000000E+00  0.00000000E+00  0.00000000E+00  0.00000000E+00
  0.00000000E+00  0.00000000E+00  0.00000000E+00  0.00000000E+00  0.00000000E+00
  0.00000000E+00  0.00000000E+00  0.00000000E+00  0.00000000E+00  0.00000000E+00
  0.00000000E+00  0.00000000E+00  0.00000000E+00  0.00000000E+00  0.00000000E+00
  0.00000000E+00  0.00000000E+00  0.00000000E+00  0.00000000E+00  0.00000000E+00
  0.00000000E+00  0.00000000E+00  0.00000000E+00  0.00000000E+00  0.00000000E+00
  0.00000000E+00  0.00000000E+00  0.00000000E+00  0.00000000E+00  0.00000000E+00
  0.00000000E+00  0.00000000E+00  0.00000000E+00  0.00000000E+00  0.00000000E+00
  0.00000000E+00  0.00000000E+00  0.00000000E+00  0.00000000E+00  0.00000000E+00
  0.00000000E+00  0.00000000E+00  0.00000000E+00  0.00000000E+00  0.00000000E+00
  0.00000000E+00  0.00000000E+00  0.00000000E+00  0.00000000E+00  0.00000000E+00
  0.00000000E+00  0.00000000E+00  0.00000000E+00  0.00000000E+00  0.00000000E+00
  0.00000000E+00  0.00000000E+00  0.00000000E+00  0.00000000E+00  0.00000000E+00
  0.00000000E+00
ZRed-Constraint1                           R   N=          71
  2.90067576E+00  2.89620555E+00  2.07192792E+00  2.06748508E+00  2.89620539E+00
  2.07192792E+00  2.06748508E+00  2.70411582E+00  2.08042524E+00  2.07111898E+00
  2.70411594E+00  2.08042517E+00  2.07111902E+00  1.77003995E+00  1.92411800E+00
  1.98326880E+00  1.92737815E+00  1.96979793E+00  1.88774615E+00  1.77003975E+00
  1.92411809E+00  1.98326878E+00  1.92737809E+00  1.96979803E+00  1.88774624E+00
  1.85730283E+00  1.93641341E+00  1.97594003E+00  1.91014829E+00  1.89760167E+00
  1.88549926E+00  1.91859350E+00  1.85730305E+00  1.93641357E+00  1.97593979E+00
  1.91014794E+00  1.89760191E+00  1.88549922E+00 -6.44088984E-01  1.39799400E+00
 -2.76288232E+00  1.39799414E+00 -2.84310818E+00 -7.20799193E-01 -2.76288235E+00
 -7.20799359E-01  1.40150962E+00  5.44536155E-01 -1.53190090E+00  2.62798441E+00
 -1.49516870E+00  2.71157955E+00  5.88279560E-01  2.67271127E+00  5.96274213E-01
 -1.52702578E+00  5.44538319E-01 -1.53189894E+00  2.62798627E+00 -1.49516650E+00
  2.71158154E+00  5.88281452E-01  2.67271334E+00  5.96276077E-01 -1.52702402E+00
 -2.13480788E-01  1.88006083E+00 -2.34727657E+00 -2.13477104E-01  1.88006464E+00
 -2.34727286E+00
ZRed-Constraint2                           R   N=          71
  2.84817460E+00  2.85961695E+00  2.07199264E+00  2.06551119E+00  2.85961675E+00
  2.07199254E+00  2.06551120E+00  2.71116764E+00  2.06970621E+00  2.06653589E+00
  2.71116788E+00  2.06970644E+00  2.06653607E+00  1.77815333E+00  1.91564765E+00
  1.98605391E+00  1.91896950E+00  1.97265731E+00  1.89020041E+00  1.77815299E+00
  1.91564787E+00  1.98605385E+00  1.91896956E+00  1.97265727E+00  1.89020056E+00
  1.86308449E+00  1.94114562E+00  1.96590086E+00  1.88042746E+00  1.91528505E+00
  1.89599515E+00  1.89289738E+00  1.86308465E+00  1.94114558E+00  1.96590066E+00
  1.88042761E+00  1.91528508E+00  1.89599507E+00 -6.45271352E-01  1.38784991E+00
 -2.77416575E+00  1.38784992E+00 -2.86221413E+00 -7.41044475E-01 -2.77416605E+00
 -7.41044791E-01  1.38012486E+00  5.44138593E-01 -1.50260189E+00  2.64733322E+00
 -1.48656852E+00  2.74987630E+00  6.16626110E-01  2.68222876E+00  6.35488275E-01
 -1.49776192E+00  5.44141086E-01 -1.50259915E+00  2.64733569E+00 -1.48656612E+00
  2.74987894E+00  6.16628479E-01  2.68223095E+00  6.35490708E-01 -1.49775976E+00
 -2.11342005E-01  1.87511495E+00 -2.34665313E+00 -2.11337821E-01  1.87511925E+00
 -2.34664883E+00
SymInf integers                            I   N=          26
           1           1           1           1           1           0
           0           0           0           0           0           0
           0           0           0           0           0           0
           0           0           0           0           0           0
           0           0
RotTr to input orientation                 R   N=          12
  9.99255689E-01 -3.75848126E-02 -8.68613967E-03  3.58566315E-02  9.88011645E-01
 -1.50157555E-01  1.42256507E-02  1.49734335E-01  9.88623922E-01  1.61508557E-02
  4.45027251E-01 -6.76353983E-02
Number of contracted shells                I               36
Number of primitive shells                 I               87
Pure/Cartesian d shells                    I                1
Pure/Cartesian f shells                    I                0
Highest angular momentum                   I                2
Largest degree of contraction              I                6
Shell types                                I   N=          36
           0          -1          -1           2           0          -1
          -1           2           0          -1          -1           2
           0          -1          -1           2           0          -1
          -1           2           0           0           0           0
           0           0           0           0           0           0
           0           0           0           0           0           0
Number of primitives per shell             I   N=          36
           6           3           1           1           6           3
           1           1           6           3           1           1
           6           3           1           1           6           3
           1           1           3           1           3           1
           3           1           3           1           3           1
           3           1           3           1           3           1
Shell to atom map                          I   N=          36
           1           1           1           1           2           2
           2           2           3           3           3           3
           4           4           4           4           5           5
           5           5           6           6           7           7
           8           8           9           9          10          10
          11          11          12          12          13          13
Primitive exponents                        R   N=          87
  3.04752488E+03  4.57369518E+02  1.03948685E+02  2.92101553E+01  9.28666296E+00
  3.16392696E+00  7.86827235E+00  1.88128854E+00  5.44249258E-01  1.68714478E-01
  8.00000000E-01  3.04752488E+03  4.57369518E+02  1.03948685E+02  2.92101553E+01
  9.28666296E+00  3.16392696E+00  7.86827235E+00  1.88128854E+00  5.44249258E-01
  1.68714478E-01  8.00000000E-01  3.04752488E+03  4.57369518E+02  1.03948685E+02
  2.92101553E+01  9.28666296E+00  3.16392696E+00  7.86827235E+00  1.88128854E+00
  5.44249258E-01  1.68714478E-01  8.00000000E-01  5.48467166E+03  8.25234946E+02
  1.88046958E+02  5.29645000E+01  1.68975704E+01  5.79963534E+00  1.55396162E+01
  3.59993359E+00  1.01376175E+00  2.70005823E-01  8.00000000E-01  3.04752488E+03
  4.57369518E+02  1.03948685E+02  2.92101553E+01  9.28666296E+00  3.16392696E+00
  7.86827235E+00  1.88128854E+00  5.44249258E-01  1.68714478E-01  8.00000000E-01
  1.87311370E+01  2.82539436E+00  6.40121692E-01  1.61277759E-01  1.87311370E+01
  2.82539436E+00  6.40121692E-01  1.61277759E-01  1.87311370E+01  2.82539436E+00
  6.40121692E-01  1.61277759E-01  1.87311370E+01  2.82539436E+00  6.40121692E-01
  1.61277759E-01  1.87311370E+01  2.82539436E+00  6.40121692E-01  1.61277759E-01
  1.87311370E+01  2.82539436E+00  6.40121692E-01  1.61277759E-01  1.87311370E+01
  2.82539436E+00  6.40121692E-01  1.61277759E-01  1.87311370E+01  2.82539436E+00
  6.40121692E-01  1.61277759E-01
Contraction coefficients                   R   N=          87
  1.83473713E-03  1.40373228E-02  6.88426223E-02  2.32184443E-01  4.67941348E-01
  3.62311985E-01 -1.19332420E-01 -1.60854152E-01  1.14345644E+00  1.00000000E+00
  1.00000000E+00  1.83473713E-03  1.40373228E-02  6.88426223E-02  2.32184443E-01
  4.67941348E-01  3.62311985E-01 -1.19332420E-01 -1.60854152E-01  1.14345644E+00
  1.00000000E+00  1.00000000E+00  1.83473713E-03  1.40373228E-02  6.88426223E-02
  2.32184443E-01  4.67941348E-01  3.62311985E-01 -1.19332420E-01 -1.60854152E-01
  1.14345644E+00  1.00000000E+00  1.00000000E+00  1.83107443E-03  1.39501722E-02
  6.84450781E-02  2.32714336E-01  4.70192898E-01  3.58520853E-01 -1.10777550E-01
 -1.48026263E-01  1.13076702E+00  1.00000000E+00  1.00000000E+00  1.83473713E-03
  1.40373228E-02  6.88426223E-02  2.32184443E-01  4.67941348E-01  3.62311985E-01
 -1.19332420E-01 -1.60854152E-01  1.14345644E+00  1.00000000E+00  1.00000000E+00
  3.34946043E-02  2.34726953E-01  8.13757326E-01  1.00000000E+00  3.34946043E-02
  2.34726953E-01  8.13757326E-01  1.00000000E+00  3.34946043E-02  2.34726953E-01
  8.13757326E-01  1.00000000E+00  3.34946043E-02  2.34726953E-01  8.13757326E-01
  1.00000000E+00  3.34946043E-02  2.34726953E-01  8.13757326E-01  1.00000000E+00
  3.34946043E-02  2.34726953E-01  8.13757326E-01  1.00000000E+00  3.34946043E-02
  2.34726953E-01  8.13757326E-01  1.00000000E+00  3.34946043E-02  2.34726953E-01
  8.13757326E-01  1.00000000E+00
P(S=P) Contraction coefficients            R   N=          87
  0.00000000E+00  0.00000000E+00  0.00000000E+00  0.00000000E+00  0.00000000E+00
  0.00000000E+00  6.89990666E-02  3.16423961E-01  7.44308291E-01  1.00000000E+00
  0.00000000E+00  0.00000000E+00  0.00000000E+00  0.00000000E+00  0.00000000E+00
  0.00000000E+00  0.00000000E+00  6.89990666E-02  3.16423961E-01  7.44308291E-01
  1.00000000E+00  0.00000000E+00  0.00000000E+00  0.00000000E+00  0.00000000E+00
  0.00000000E+00  0.00000000E+00  0.00000000E+00  6.89990666E-02  3.16423961E-01
  7.44308291E-01  1.00000000E+00  0.00000000E+00  0.00000000E+00  0.00000000E+00
  0.00000000E+00  0.00000000E+00  0.00000000E+00  0.00000000E+00  7.08742682E-02
  3.39752839E-01  7.27158577E-01  1.00000000E+00  0.00000000E+00  0.00000000E+00
  0.00000000E+00  0.00000000E+00  0.00000000E+00  0.00000000E+00  0.00000000E+00
  6.89990666E-02  3.16423961E-01  7.44308291E-01  1.00000000E+00  0.00000000E+00
  0.00000000E+00  0.00000000E+00  0.00000000E+00  0.00000000E+00  0.00000000E+00
  0.00000000E+00  0.00000000E+00  0.00000000E+00  0.00000000E+00  0.00000000E+00
  0.00000000E+00  0.00000000E+00  0.00000000E+00  0.00000000E+00  0.00000000E+00
  0.00000000E+00  0.00000000E+00  0.00000000E+00  0.00000000E+00  0.00000000E+00
  0.00000000E+00  0.00000000E+00  0.00000000E+00  0.00000000E+00  0.00000000E+00
  0.00000000E+00  0.00000000E+00  0.00000000E+00  0.00000000E+00  0.00000000E+00
  0.00000000E+00  0.00000000E+00
Coordinates of each shell                  R   N=         108
  1.38386710E+00 -1.88117624E+00  4.34038467E-01  1.38386710E+00 -1.88117624E+00
  4.34038467E-01  1.38386710E+00 -1.88117624E+00  4.34038467E-01  1.38386710E+00
 -1.88117624E+00  4.34038467E-01 -1.38386862E+00 -1.88117494E+00 -4.34039218E-01
 -1.38386862E+00 -1.88117494E+00 -4.34039218E-01 -1.38386862E+00 -1.88117494E+00
 -4.34039218E-01 -1.38386862E+00 -1.88117494E+00 -4.34039218E-01 -2.19973695E+00
  8.11786247E-01  2.51762920E-01 -2.19973695E+00  8.11786247E-01  2.51762920E-01
 -2.19973695E+00  8.11786247E-01  2.51762920E-01 -2.19973695E+00  8.11786247E-01
  2.51762920E-01  5.58037796E-07  2.36420758E+00 -1.31247919E-06  5.58037796E-07
  2.36420758E+00 -1.31247919E-06  5.58037796E-07  2.36420758E+00 -1.31247919E-06
  5.58037796E-07  2.36420758E+00 -1.31247919E-06  2.19973784E+00  8.11785012E-01
 -2.51761261E-01  2.19973784E+00  8.11785012E-01 -2.51761261E-01  2.19973784E+00
  8.11785012E-01 -2.51761261E-01  2.19973784E+00  8.11785012E-01 -2.51761261E-01
  1.49263902E+00 -2.17021972E+00  2.48282050E+00  1.49263902E+00 -2.17021972E+00
  2.48282050E+00  2.54018149E+00 -3.32893492E+00 -4.83254488E-01  2.54018149E+00
 -3.32893492E+00 -4.83254488E-01 -1.49264091E+00 -2.17021637E+00 -2.48282152E+00
 -1.49264091E+00 -2.17021637E+00 -2.48282152E+00 -2.54018397E+00 -3.32893360E+00
  4.83252586E-01 -2.54018397E+00 -3.32893360E+00  4.83252586E-01 -2.89116117E+00
  9.03098845E-01  2.21180469E+00 -2.89116117E+00  9.03098845E-01  2.21180469E+00
 -3.68372022E+00  1.55556452E+00 -9.86833613E-01 -3.68372022E+00  1.55556452E+00
 -9.86833613E-01  2.89116583E+00  9.03098307E-01 -2.21180160E+00  2.89116583E+00
  9.03098307E-01 -2.21180160E+00  3.68371923E+00  1.55556180E+00  9.86838493E-01
  3.68371923E+00  1.55556180E+00  9.86838493E-01
Num ILSW                                   I              100
ILSW                                       I   N=         100
           0           1           0           0           2           0
           0           0           0           0         402          -1
           5           0           0           0           2           0
           0           0           1           0           1           0
           1           0           0           0           0           0
           0           0      100000           0          -1           0
           0           0           0           0           0           0
           0           0           0           1           0           0
           0 -2000000000           1           0           0           0
           0           0         141          52           0           0
           0           0           5           0           0           0
           0           0           0           0           0           1
           0           0           0           0           0           0
           0           0           0           0           0           0
           0           0           0           0           0           0
           0           0           0           0           0           0
           0           0           0           0
Num RLSW                                   I               52
RLSW                                       R   N=          52
  8.00000000E-01  7.20000000E-01  1.00000000E+00  8.10000000E-01  2.00000000E-01
  0.00000000E+00  0.00000000E+00  1.00000000E+00  0.00000000E+00  0.00000000E+00
  0.00000000E+00  0.00000000E+00  1.00000000E+00  0.00000000E+00  0.00000000E+00
  0.00000000E+00  0.00000000E+00  1.00000000E+00  0.00000000E+00  0.00000000E+00
  0.00000000E+00  0.00000000E+00  1.00000000E+00  0.00000000E+00  0.00000000E+00
  0.00000000E+00  0.00000000E+00  1.00000000E+00  0.00000000E+00  0.00000000E+00
  0.00000000E+00  0.00000000E+00  1.00000000E+00  0.00000000E+00  0.00000000E+00
  0.00000000E+00  0.00000000E+00  0.00000000E+00  1.00000000E+00  1.00000000E+00
  0.00000000E+00  1.00000000E+00  0.00000000E+00  0.00000000E+00  0.00000000E+00
  0.00000000E+00  0.00000000E+00  0.00000000E+00  0.00000000E+00  0.00000000E+00
  0.00000000E+00  0.00000000E+00
MxBond                                     I                4
NBond                                      I   N=          13
           4           4           4           2           4           1
           1           1           1           1           1           1
           1
IBond                                      I   N=          52
           2           5           6           7           1           3
           8           9           2           4          10          11
           3           5           0           0           1           4
          12          13           1           0           0           0
           1           0           0           0           2           0
           0           0           2           0           0           0
           3           0           0           0           3           0
           0           0           5           0           0           0
           5           0           0           0
RBond                                      R   N=          52
  1.00000000E+00  1.00000000E+00  1.00000000E+00  1.00000000E+00  1.00000000E+00
  1.00000000E+00  1.00000000E+00  1.00000000E+00  1.00000000E+00  1.00000000E+00
  1.00000000E+00  1.00000000E+00  1.00000000E+00  1.00000000E+00  0.00000000E+00
  0.00000000E+00  1.00000000E+00  1.00000000E+00  1.00000000E+00  1.00000000E+00
  1.00000000E+00  0.00000000E+00  0.00000000E+00  0.00000000E+00  1.00000000E+00
  0.00000000E+00  0.00000000E+00  0.00000000E+00  1.00000000E+00  0.00000000E+00
  0.00000000E+00  0.00000000E+00  1.00000000E+00  0.00000000E+00  0.00000000E+00
  0.00000000E+00  1.00000000E+00  0.00000000E+00  0.00000000E+00  0.00000000E+00
  1.00000000E+00  0.00000000E+00  0.00000000E+00  0.00000000E+00  1.00000000E+00
  0.00000000E+00  0.00000000E+00  0.00000000E+00  1.00000000E+00  0.00000000E+00
  0.00000000E+00  0.00000000E+00
Virial Ratio                               R      2.009422207563203E+00
SCF Energy                                 R     -2.324649244539644E+02
Total Energy                               R     -2.324649244539644E+02
RMS Force                                  R      1.808074208304848E-05
RMS Density                                R      3.962294655684590E-09
NImag                                      I                0
Job Status                                 I                1
Nuclear derivative order                   I                2
External E-field                           R   N=          35
  0.00000000E+00  0.00000000E+00  0.00000000E+00  0.00000000E+00  0.00000000E+00
  0.00000000E+00  0.00000000E+00  0.00000000E+00  0.00000000E+00  0.00000000E+00
  0.00000000E+00  0.00000000E+00  0.00000000E+00  0.00000000E+00  0.00000000E+00
  0.00000000E+00  0.00000000E+00  0.00000000E+00  0.00000000E+00  0.00000000E+00
  0.00000000E+00  0.00000000E+00  0.00000000E+00  0.00000000E+00  0.00000000E+00
  0.00000000E+00  0.00000000E+00  0.00000000E+00  0.00000000E+00  0.00000000E+00
  0.00000000E+00  0.00000000E+00  0.00000000E+00  0.00000000E+00  0.00000000E+00
IOpCl                                      I                0
IROHF                                      I                0
Alpha Orbital Energies                     R   N=          91
 -1.91317986E+01 -1.02236439E+01 -1.02236365E+01 -1.01869283E+01 -1.01867170E+01
 -1.01926852E+00 -7.80551039E-01 -7.31266307E-01 -5.92649098E-01 -5.86589388E-01
 -4.97079239E-01 -4.85537853E-01 -4.24040732E-01 -4.23698724E-01 -3.99037698E-01
 -3.52648573E-01 -3.48509299E-01 -3.33649991E-01 -3.06529126E-01 -2.37436989E-01
  8.76364064E-02  1.12828932E-01  1.36180710E-01  1.42245401E-01  1.60330625E-01
  1.62100945E-01  1.69231523E-01  1.81022941E-01  2.10363677E-01  2.14423109E-01