Acetone                                                                 
Freq      RB3LYP                                                      6-31G(d)            
Number of atoms                            I               10
Info1-9                                    I   N=           9
          19          19        1002           0           0         100
           6          18        -502
Full Title                                 C   N=           1
Acetone     
Route                                      C   N=           6
# opt freq B3LYP/6-31G(d) em=gd3bj scrf=(pcm,solvent=Acetone
)           
Charge                                     I                0
Multiplicity                               I                1
Number of electrons                        I               32
Number of alpha electrons                  I               16
Number of beta electrons                   I               16
Number of basis functions                  I               72
Number of independent functions            I               72
Number of point charges in /Mol/           I                0
Number of translation vectors              I                0
Atomic numbers                             I   N=          10
           6           6           8           6           1           1
           1           1           1           1
Nuclear charges                            R   N=          10
  6.00000000E+00  6.00000000E+00  8.00000000E+00  6.00000000E+00  1.00000000E+00
  1.00000000E+00  1.00000000E+00  1.00000000E+00  1.00000000E+00  1.00000000E+00
Current cartesian coordinates              R   N=          30
 -2.43438802E+00 -1.16117105E+00  2.22398288E-06  1.73921441E-18  3.45471953E-01
 -1.72638680E-05 -1.04790348E-07  2.65236057E+00  4.40554922E-06  2.43438810E+00
 -1.16117092E+00  2.19059233E-06 -2.51271146E+00 -2.39446456E+00 -1.66366602E+00
 -2.51269120E+00 -2.39445739E+00  1.66367701E+00 -4.05947676E+00  1.10089431E-01
  9.76377561E-06  2.51271057E+00 -2.39446650E+00 -1.66366457E+00  2.51269245E+00
 -2.39445516E+00  1.66367848E+00  4.05947675E+00  1.10089684E-01  7.19281138E-06
Number of symbols in /Mol/                 I                0
Force Field                                I                0
Atom Types                                 C   N=          10
                                                            
                                                            
Int Atom Types                             I   N=          10
           0           0           0           0           0           0
           0           0           0           0
MM charges                                 R   N=          10
  0.00000000E+00  0.00000000E+00  0.00000000E+00  0.00000000E+00  0.00000000E+00
  0.00000000E+00  0.00000000E+00  0.00000000E+00  0.00000000E+00  0.00000000E+00
Integer atomic weights                     I   N=          10
          12          12          16          12           1           1
           1           1           1           1
Real atomic weights                        R   N=          10
  1.20000000E+01  1.20000000E+01  1.59949146E+01  1.20000000E+01  1.00782504E+00
  1.00782504E+00  1.00782504E+00  1.00782504E+00  1.00782504E+00  1.00782504E+00
Atom fragment info                         I   N=          10
           0           0           0           0           0           0
           0           0           0           0
Atom residue num                           I   N=          10
           0           0           0           0           0           0
           0           0           0           0
Nuclear spins                              I   N=          10
           0           0           0           0           1           1
           1           1           1           1
Nuclear ZEff                               R   N=          10
 -3.60000000E+00 -3.60000000E+00 -5.60000000E+00 -3.60000000E+00 -1.00000000E+00
 -1.00000000E+00 -1.00000000E+00 -1.00000000E+00 -1.00000000E+00 -1.00000000E+00
Nuclear ZNuc                               R   N=          10
  6.00000000E+00  6.00000000E+00  8.00000000E+00  6.00000000E+00  1.00000000E+00
  1.00000000E+00  1.00000000E+00  1.00000000E+00  1.00000000E+00  1.00000000E+00
Nuclear QMom                               R   N=          10
  0.00000000E+00  0.00000000E+00  0.00000000E+00  0.00000000E+00  0.00000000E+00
  0.00000000E+00  0.00000000E+00  0.00000000E+00  0.00000000E+00  0.00000000E+00
Nuclear GFac                               R   N=          10
  0.00000000E+00  0.00000000E+00  0.00000000E+00  0.00000000E+00  2.79284600E+00
  2.79284600E+00  2.79284600E+00  2.79284600E+00  2.79284600E+00  2.79284600E+00
MicOpt                                     I   N=          10
          -1          -1          -1          -1          -1          -1
          -1          -1          -1          -1
Number of residues                         I                0
Number of secondary structures             I                0
Redundant internal dimensions              I   N=           4
          36           9          15          12
Redundant internal coordinate indices      I   N=         144
           1           2           0           0           1           5
           0           0           1           6           0           0
           1           7           0           0           2           3
           0           0           2           4           0           0
           4           8           0           0           4           9
           0           0           4          10           0           0
           2           1           5           0           2           1
           6           0           2           1           7           0
           5           1           6           0           5           1
           7           0           6           1           7           0
           1           2           3           0           1           2
           4           0           3           2           4           0
           2           4           8           0           2           4
           9           0           2           4          10           0
           8           4           9           0           8           4
          10           0           9           4          10           0
           5           1           2           3           5           1
           2           4           6           1           2           3
           6           1           2           4           7           1
           2           3           7           1           2           4
           1           2           4           8           1           2
           4           9           1           2           4          10
           3           2           4           8           3           2
           4           9           3           2           4          10
Redundant internal coordinates             R   N=          36
  2.86290380E+00  2.07242358E+00  2.07242379E+00  2.06325390E+00  2.30688862E+00
  2.86290380E+00  2.07242358E+00  2.07242379E+00  2.06325389E+00  1.92336442E+00
  1.92336522E+00  1.92355485E+00  1.86383938E+00  1.91441991E+00  1.91441955E+00
  2.12499713E+00  2.03319102E+00  2.12499716E+00  1.92336453E+00  1.92336513E+00
  1.92355483E+00  1.86383938E+00  1.91441995E+00  1.91441951E+00  2.11531942E+00
 -1.02629948E+00 -2.11529176E+00  1.02627465E+00  1.38716365E-05  3.14158028E+00
  1.02629807E+00 -1.02627608E+00 -3.14158158E+00 -2.11532083E+00  2.11529033E+00
 -1.51707141E-05
ZRed-IntVec                                I   N=          36
           0           0           0           0           0           0
           0           0           0           0           0           0
           0           0           0           0           0           0
           0           0           0           0           0           0
           0           0           0           0           0           0
           0           0           0           0           0           0
ZRed-FPVec                                 R   N=          36
  0.00000000E+00  0.00000000E+00  0.00000000E+00  0.00000000E+00  0.00000000E+00
  0.00000000E+00  0.00000000E+00  0.00000000E+00  0.00000000E+00  0.00000000E+00
  0.00000000E+00  0.00000000E+00  0.00000000E+00  0.00000000E+00  0.00000000E+00
  0.00000000E+00  0.00000000E+00  0.00000000E+00  0.00000000E+00  0.00000000E+00
  0.00000000E+00  0.00000000E+00  0.00000000E+00  0.00000000E+00  0.00000000E+00
  0.00000000E+00  0.00000000E+00  0.00000000E+00  0.00000000E+00  0.00000000E+00
  0.00000000E+00  0.00000000E+00  0.00000000E+00  0.00000000E+00  0.00000000E+00
  0.00000000E+00
ZRed-Constraint1                           R   N=          36
  2.86290380E+00  2.07242358E+00  2.07242379E+00  2.06325390E+00  2.30688862E+00
  2.86290380E+00  2.07242358E+00  2.07242379E+00  2.06325389E+00  1.92336442E+00
  1.92336522E+00  1.92355485E+00  1.86383938E+00  1.91441991E+00  1.91441955E+00
  2.12499713E+00  2.03319102E+00  2.12499716E+00  1.92336453E+00  1.92336513E+00
  1.92355483E+00  1.86383938E+00  1.91441995E+00  1.91441951E+00  2.11531942E+00
 -1.02629948E+00 -2.11529176E+00  1.02627465E+00  1.38716365E-05  3.14158028E+00
  1.02629807E+00 -1.02627608E+00 -3.14158158E+00 -2.11532083E+00  2.11529033E+00
 -1.51707360E-05
ZRed-Constraint2                           R   N=          36
  2.84359481E+00  2.06501281E+00  2.06501182E+00  2.06645645E+00  2.32448148E+00
  2.84359495E+00  2.06501278E+00  2.06501197E+00  2.06645626E+00  1.91258542E+00
  1.91258377E+00  1.91483355E+00  1.92351361E+00  1.90011001E+00  1.90010845E+00
  2.12295605E+00  2.03727295E+00  2.12295631E+00  1.91258436E+00  1.91258467E+00
  1.91483267E+00  1.92351358E+00  1.90011011E+00  1.90010942E+00  2.08527035E+00
 -1.05632511E+00 -2.08526301E+00  1.05632684E+00  2.20889297E-06  3.14159206E+00
  1.05632340E+00 -1.05632841E+00  3.14159048E+00 -2.08527206E+00  2.08526144E+00
 -4.97890588E-06
SymInf integers                            I   N=          26
           1           1           1           1           1           0
           0           0           0           0           0           0
           0           0           0           0           0           0
           0           0           0           0           0           0
           0           0
RotTr to input orientation                 R   N=          12
 -9.82373480E-01 -1.84961963E-01  2.70447515E-02  1.48375311E-01 -6.83558291E-01
  7.14655742E-01 -1.13697465E-01  7.06071622E-01  6.98953326E-01  1.28822439E-01
 -5.93479552E-01  6.20474208E-01
Number of contracted shells                I               28
Number of primitive shells                 I               68
Pure/Cartesian d shells                    I                1
Pure/Cartesian f shells                    I                0
Highest angular momentum                   I                2
Largest degree of contraction              I                6
Shell types                                I   N=          28
           0          -1          -1           2           0          -1
          -1           2           0          -1          -1           2
           0          -1          -1           2           0           0
           0           0           0           0           0           0
           0           0           0           0
Number of primitives per shell             I   N=          28
           6           3           1           1           6           3
           1           1           6           3           1           1
           6           3           1           1           3           1
           3           1           3           1           3           1
           3           1           3           1
Shell to atom map                          I   N=          28
           1           1           1           1           2           2
           2           2           3           3           3           3
           4           4           4           4           5           5
           6           6           7           7           8           8
           9           9          10          10
Primitive exponents                        R   N=          68
  3.04752488E+03  4.57369518E+02  1.03948685E+02  2.92101553E+01  9.28666296E+00
  3.16392696E+00  7.86827235E+00  1.88128854E+00  5.44249258E-01  1.68714478E-01
  8.00000000E-01  3.04752488E+03  4.57369518E+02  1.03948685E+02  2.92101553E+01
  9.28666296E+00  3.16392696E+00  7.86827235E+00  1.88128854E+00  5.44249258E-01
  1.68714478E-01  8.00000000E-01  5.48467166E+03  8.25234946E+02  1.88046958E+02
  5.29645000E+01  1.68975704E+01  5.79963534E+00  1.55396162E+01  3.59993359E+00
  1.01376175E+00  2.70005823E-01  8.00000000E-01  3.04752488E+03  4.57369518E+02
  1.03948685E+02  2.92101553E+01  9.28666296E+00  3.16392696E+00  7.86827235E+00
  1.88128854E+00  5.44249258E-01  1.68714478E-01  8.00000000E-01  1.87311370E+01
  2.82539436E+00  6.40121692E-01  1.61277759E-01  1.87311370E+01  2.82539436E+00
  6.40121692E-01  1.61277759E-01  1.87311370E+01  2.82539436E+00  6.40121692E-01
  1.61277759E-01  1.87311370E+01  2.82539436E+00  6.40121692E-01  1.61277759E-01
  1.87311370E+01  2.82539436E+00  6.40121692E-01  1.61277759E-01  1.87311370E+01
  2.82539436E+00  6.40121692E-01  1.61277759E-01
Contraction coefficients                   R   N=          68
  1.83473713E-03  1.40373228E-02  6.88426223E-02  2.32184443E-01  4.67941348E-01
  3.62311985E-01 -1.19332420E-01 -1.60854152E-01  1.14345644E+00  1.00000000E+00
  1.00000000E+00  1.83473713E-03  1.40373228E-02  6.88426223E-02  2.32184443E-01
  4.67941348E-01  3.62311985E-01 -1.19332420E-01 -1.60854152E-01  1.14345644E+00
  1.00000000E+00  1.00000000E+00  1.83107443E-03  1.39501722E-02  6.84450781E-02
  2.32714336E-01  4.70192898E-01  3.58520853E-01 -1.10777550E-01 -1.48026263E-01
  1.13076702E+00  1.00000000E+00  1.00000000E+00  1.83473713E-03  1.40373228E-02
  6.88426223E-02  2.32184443E-01  4.67941348E-01  3.62311985E-01 -1.19332420E-01
 -1.60854152E-01  1.14345644E+00  1.00000000E+00  1.00000000E+00  3.34946043E-02
  2.34726953E-01  8.13757326E-01  1.00000000E+00  3.34946043E-02  2.34726953E-01
  8.13757326E-01  1.00000000E+00  3.34946043E-02  2.34726953E-01  8.13757326E-01
  1.00000000E+00  3.34946043E-02  2.34726953E-01  8.13757326E-01  1.00000000E+00
  3.34946043E-02  2.34726953E-01  8.13757326E-01  1.00000000E+00  3.34946043E-02
  2.34726953E-01  8.13757326E-01  1.00000000E+00
P(S=P) Contraction coefficients            R   N=          68
  0.00000000E+00  0.00000000E+00  0.00000000E+00  0.00000000E+00  0.00000000E+00
  0.00000000E+00  6.89990666E-02  3.16423961E-01  7.44308291E-01  1.00000000E+00
  0.00000000E+00  0.00000000E+00  0.00000000E+00  0.00000000E+00  0.00000000E+00
  0.00000000E+00  0.00000000E+00  6.89990666E-02  3.16423961E-01  7.44308291E-01
  1.00000000E+00  0.00000000E+00  0.00000000E+00  0.00000000E+00  0.00000000E+00
  0.00000000E+00  0.00000000E+00  0.00000000E+00  7.08742682E-02  3.39752839E-01
  7.27158577E-01  1.00000000E+00  0.00000000E+00  0.00000000E+00  0.00000000E+00
  0.00000000E+00  0.00000000E+00  0.00000000E+00  0.00000000E+00  6.89990666E-02
  3.16423961E-01  7.44308291E-01  1.00000000E+00  0.00000000E+00  0.00000000E+00
  0.00000000E+00  0.00000000E+00  0.00000000E+00  0.00000000E+00  0.00000000E+00
  0.00000000E+00  0.00000000E+00  0.00000000E+00  0.00000000E+00  0.00000000E+00
  0.00000000E+00  0.00000000E+00  0.00000000E+00  0.00000000E+00  0.00000000E+00
  0.00000000E+00  0.00000000E+00  0.00000000E+00  0.00000000E+00  0.00000000E+00
  0.00000000E+00  0.00000000E+00  0.00000000E+00
Coordinates of each shell                  R   N=          84
 -2.43438802E+00 -1.16117105E+00  2.22398288E-06 -2.43438802E+00 -1.16117105E+00
  2.22398288E-06 -2.43438802E+00 -1.16117105E+00  2.22398288E-06 -2.43438802E+00
 -1.16117105E+00  2.22398288E-06  1.73921441E-18  3.45471953E-01 -1.72638680E-05
  1.73921441E-18  3.45471953E-01 -1.72638680E-05  1.73921441E-18  3.45471953E-01
 -1.72638680E-05  1.73921441E-18  3.45471953E-01 -1.72638680E-05 -1.04790348E-07
  2.65236057E+00  4.40554922E-06 -1.04790348E-07  2.65236057E+00  4.40554922E-06
 -1.04790348E-07  2.65236057E+00  4.40554922E-06 -1.04790348E-07  2.65236057E+00
  4.40554922E-06  2.43438810E+00 -1.16117092E+00  2.19059233E-06  2.43438810E+00
 -1.16117092E+00  2.19059233E-06  2.43438810E+00 -1.16117092E+00  2.19059233E-06
  2.43438810E+00 -1.16117092E+00  2.19059233E-06 -2.51271146E+00 -2.39446456E+00
 -1.66366602E+00 -2.51271146E+00 -2.39446456E+00 -1.66366602E+00 -2.51269120E+00
 -2.39445739E+00  1.66367701E+00 -2.51269120E+00 -2.39445739E+00  1.66367701E+00
 -4.05947676E+00  1.10089431E-01  9.76377561E-06 -4.05947676E+00  1.10089431E-01
  9.76377561E-06  2.51271057E+00 -2.39446650E+00 -1.66366457E+00  2.51271057E+00
 -2.39446650E+00 -1.66366457E+00  2.51269245E+00 -2.39445516E+00  1.66367848E+00
  2.51269245E+00 -2.39445516E+00  1.66367848E+00  4.05947675E+00  1.10089684E-01
  7.19281138E-06  4.05947675E+00  1.10089684E-01  7.19281138E-06
Num ILSW                                   I              100
ILSW                                       I   N=         100
           0           1           0           0           2           0
           0           0           0           0         402          -1
           5           0           0           0           2           0
           0           0           1           0           1           0
           1           0           0           0           0           0
           0           0      100000           0          -1           0
           0           0           0           0           0           0
           0           0           0           1           0           0
           0 -2000000000           1           0           0           0
           0           0         141          52           0           0
           0           0           5           0           0           0
           0           0           0           0           0           1
           0           0           0           0           0           0
           0           0           0           0           0           0
           0           0           0           0           0           0
           0           0           0           0           0           0
           0           0           0           0
Num RLSW                                   I               52
RLSW                                       R   N=          52
  8.00000000E-01  7.20000000E-01  1.00000000E+00  8.10000000E-01  2.00000000E-01
  0.00000000E+00  0.00000000E+00  1.00000000E+00  0.00000000E+00  0.00000000E+00
  0.00000000E+00  0.00000000E+00  1.00000000E+00  0.00000000E+00  0.00000000E+00
  0.00000000E+00  0.00000000E+00  1.00000000E+00  0.00000000E+00  0.00000000E+00
  0.00000000E+00  0.00000000E+00  1.00000000E+00  0.00000000E+00  0.00000000E+00
  0.00000000E+00  0.00000000E+00  1.00000000E+00  0.00000000E+00  0.00000000E+00
  0.00000000E+00  0.00000000E+00  1.00000000E+00  0.00000000E+00  0.00000000E+00
  0.00000000E+00  0.00000000E+00  0.00000000E+00  1.00000000E+00  1.00000000E+00
  0.00000000E+00  1.00000000E+00  0.00000000E+00  0.00000000E+00  0.00000000E+00
  0.00000000E+00  0.00000000E+00  0.00000000E+00  0.00000000E+00  0.00000000E+00
  0.00000000E+00  0.00000000E+00
MxBond                                     I                4
NBond                                      I   N=          10
           4           3           1           4           1           1
           1           1           1           1
IBond                                      I   N=          40
           2           5           6           7           1           3
           4           0           2           0           0           0
           2           8           9          10           1           0
           0           0           1           0           0           0
           1           0           0           0           4           0
           0           0           4           0           0           0
           4           0           0           0
RBond                                      R   N=          40
  1.00000000E+00  1.00000000E+00  1.00000000E+00  1.00000000E+00  1.00000000E+00
  2.00000000E+00  1.00000000E+00  0.00000000E+00  2.00000000E+00  0.00000000E+00
  0.00000000E+00  0.00000000E+00  1.00000000E+00  1.00000000E+00  1.00000000E+00
  1.00000000E+00  1.00000000E+00  0.00000000E+00  0.00000000E+00  0.00000000E+00
  1.00000000E+00  0.00000000E+00  0.00000000E+00  0.00000000E+00  1.00000000E+00
  0.00000000E+00  0.00000000E+00  0.00000000E+00  1.00000000E+00  0.00000000E+00
  0.00000000E+00  0.00000000E+00  1.00000000E+00  0.00000000E+00  0.00000000E+00
  0.00000000E+00  1.00000000E+00  0.00000000E+00  0.00000000E+00  0.00000000E+00
Virial Ratio                               R      2.009522560949182E+00
SCF Energy                                 R     -1.931710532068851E+02
Total Energy                               R     -1.931710532068851E+02
RMS Force                                  R      9.823592307514288E-05
RMS Density                                R      9.116372142033010E-10
NImag                                      I                1
Job Status                                 I                1
Nuclear derivative order                   I                2
PCM-NSphere                                I               10
PCM-NGenSphere                             I               10
PCM-NOrd                                   I   N=          10
           1           2           3           4           5           6
           7           8           9          10
PCM-SphereRadii                            R   N=          10
  4.00253442E+00  4.00253442E+00  3.63772279E+00  4.00253442E+00  2.99956228E+00
  2.99956228E+00  2.99956228E+00  2.99956228E+00  2.99956228E+00  2.99956228E+00
PCM-SphereLoc                              R   N=          30
 -2.43438802E+00 -1.16117105E+00  2.22398288E-06  1.73921441E-18  3.45471953E-01
 -1.72638680E-05 -1.04790348E-07  2.65236057E+00  4.40554922E-06  2.43438810E+00
 -1.16117092E+00  2.19059233E-06 -2.51271146E+00 -2.39446456E+00 -1.66366602E+00
 -2.51269120E+00 -2.39445739E+00  1.66367701E+00 -4.05947676E+00  1.10089431E-01
  9.76377561E-06  2.51271057E+00 -2.39446650E+00 -1.66366457E+00  2.51269245E+00
 -2.39445516E+00  1.66367848E+00  4.05947675E+00  1.10089684E-01  7.19281138E-06
External E-field                           R   N=          35
  0.00000000E+00  0.00000000E+00  0.00000000E+00  0.00000000E+00  0.00000000E+00
  0.00000000E+00  0.00000000E+00  0.00000000E+00  0.00000000E+00  0.00000000E+00
  0.00000000E+00  0.00000000E+00  0.00000000E+00  0.00000000E+00  0.00000000E+00
  0.00000000E+00  0.00000000E+00  0.00000000E+00  0.00000000E+00  0.00000000E+00
  0.00000000E+00  0.00000000E+00  0.00000000E+00  0.00000000E+00  0.00000000E+00
  0.00000000E+00  0.00000000E+00  0.00000000E+00  0.00000000E+00  0.00000000E+00
  0.00000000E+00  0.00000000E+00  0.00000000E+00  0.00000000E+00  0.00000000E+00
IOpCl                                      I                0
IROHF                                      I                0
Alpha Orbital Energies                     R   N=          72
 -1.91399766E+01 -1.02804574E+01 -1.01850185E+01 -1.01850075E+01 -1.03825207E+00
 -7.65177220E-01 -7.05527764E-01 -5.30079557E-01 -4.55557556E-01 -4.54591289E-01
 -4.49652208E-01 -3.96927069E-01 -3.92757508E-01 -3.75377856E-01 -3.48666195E-01
 -2.49151939E-01 -1.33857931E-02  9.76045062E-02  1.41129386E-01  1.57663254E-01
  1.70650290E-01  1.81122576E-01  1.85765596E-01  2.04831706E-01  2.94500918E-01
  3.18973506E-01  5.00476628E-01  5.40144150E-01  5.69151199E-01  5.77586329E-01
  5.81165804E-01  6.81069215E-01  7.02503971E-01  7.08133210E-01  7.77344477E-01
  7.90533314E-01  8.39851697E-01  8.60556212E-01  8.94875940E-01  9.04986975E-01
  9.24848597E-01  9.44709585E-01  9.67810035E-01  1.00816982E+00  1.08713916E+00
  1.18055423E+00  1.40519975E+00  1.42222371E+00  1.43412432E+00  1.55587695E+00
  1.76572424E+00  1.78275579E+00  1.78630377E+00  1.80527610E+00  1.90615297E+00
  1.93873878E+00  2.02998706E+00  2.07929090E+00  2.11804096E+00  2.20241085E+00
  2.21342604E+00  2.36144610E+00  2.41312578E+00  2.48709063E+00  2.58849950E+00
  2.69555446E+00  2.94110879E+00  2.97341696E+00  3.93462702E+00  4.09291320E+00
  4.27618791E+00  4.44482828E+00
Alpha MO coefficients                      R   N=        5184
  8.01931629E-06  8.68728086E-05  1.21085429E-05 -8.91430967E-06  5.29722017E-10
 -7.07539062E-04 -7.51024944E-04  4.35113106E-04  6.90910028E-09 -4.19966572E-05
  1.42402406E-05 -4.24054391E-06 -5.63196222E-06  1.33026175E-09 -1.25477010E-09
 -1.10265036E-05  4.08403833E-04 -6.92874391E-12 -1.91823913E-06  3.31622508E-11
 -2.67325072E-03  2.19947047E-10 -4.01021037E-03 -2.61439700E-08 -3.34494587E-05
 -8.73941164E-04 -5.29170259E-05  4.69370919E-11  8.80268334E-12 -1.06771731E-08
  9.92720987E-01  2.55519342E-02  5.63400553E-11 -1.08185749E-03 -1.10689294E-08
  1.46758759E-02  7.22280352E-11 -1.85270926E-03 -2.11366201E-08 -8.21300584E-03
 -7.66233157E-03 -8.23816913E-03 -2.62340720E-11 -6.90629578E-12  6.54900669E-09
  8.01931718E-06  8.68728005E-05 -1.21085425E-05 -8.91431045E-06  6.02934246E-10
 -7.07539185E-04  7.51024922E-04  4.35113129E-04  6.57321820E-09 -4.19966443E-05
  1.42402530E-05 -4.24054435E-06  5.63195111E-06 -1.37788071E-09 -1.34449194E-09
  2.70372493E-05  1.11766754E-04  2.70342574E-05  1.11776322E-04  1.41065146E-05
 -3.63191654E-04  2.70373101E-05  1.11766839E-04  2.70342050E-05  1.11776245E-04
  1.41065164E-05 -3.63191620E-04  1.13713756E-03 -1.07598760E-04 -1.84715979E-04
 -2.02153792E-04 -5.36609589E-10  3.72704768E-03  2.00527576E-03  5.13110597E-04
  7.96896868E-09 -2.94635671E-04 -3.40746693E-04 -5.35503532E-05 -2.20250247E-04
  4.01207648E-09  3.28848869E-09  9.92938622E-01  4.86673632E-02 -1.95980253E-11
  8.48353873E-04  9.75431071E-09 -1.03159389E-02 -2.77896669E-10  4.72856577E-03
 -3.96991186E-08 -9.27384706E-03 -8.15689553E-03 -9.44225995E-03 -7.00993737E-11
  5.48840699E-11  1.10142326E-08 -9.04989283E-05  5.77645045E-04 -6.72862782E-12
  5.57229242E-05 -2.73537159E-09 -3.94545314E-03 -7.04373885E-11  2.26499448E-03
  4.72315072E-08  3.83955580E-04 -3.04310534E-04  5.66094209E-04  2.65373606E-11
  1.81489814E-11 -1.60036942E-08  1.13713758E-03 -1.07598763E-04  1.84715992E-04
 -2.02153781E-04 -3.18632751E-10  3.72704787E-03 -2.00527581E-03  5.13110544E-04
  6.66852294E-09 -2.94635712E-04 -3.40746674E-04 -5.35503546E-05  2.20250255E-04
 -3.94866586E-09  3.44471490E-09 -1.64633126E-04  1.59042641E-04 -1.64633321E-04
  1.59013043E-04 -7.23109738E-05  1.86460168E-04 -1.64633083E-04  1.59041248E-04
 -1.64633381E-04  1.59014433E-04 -7.23109825E-05  1.86460141E-04 -7.02056270E-01
 -3.58710275E-02 -1.81558511E-04  1.31688463E-04  2.26945363E-09  1.40824433E-02
  1.50762565E-03  5.12960831E-04 -2.39940895E-08  6.47972054E-03  6.51242404E-03
  6.38767263E-03  8.90223948E-05 -9.30662164E-10 -1.92455940E-09 -1.97418520E-07
 -3.65048310E-08 -2.78346487E-04  3.92097977E-09  4.52606466E-11  5.59503856E-07
  4.74776007E-03 -1.25360378E-07  9.51626144E-11 -5.18087203E-08 -3.24939318E-08
 -1.91847490E-08  2.28148746E-04 -1.05122468E-09 -4.42093769E-11 -2.70690536E-09
 -1.57984775E-08  2.76917180E-05  3.12913826E-09 -3.11173640E-11  1.61769035E-08
 -7.09458578E-04 -1.57476017E-08  1.04613254E-10 -2.53931741E-09  5.00089748E-09
 -2.18988156E-08  9.72566113E-05  5.61429559E-09 -2.56702801E-11  7.02200397E-01
  3.58782866E-02 -1.81561557E-04 -1.31688855E-04 -1.79289700E-09 -1.40847654E-02
  1.50768757E-03 -5.13047059E-04  2.19946831E-08 -6.48107148E-03 -6.51377336E-03
 -6.38902575E-03  8.90279600E-05 -1.01202245E-09  1.90388818E-09 -6.23605264E-05
 -2.17361982E-03 -6.23597033E-05 -2.17360575E-03 -1.14488416E-05 -1.63718159E-03
  6.23433550E-05  2.17397946E-03  6.23423737E-05  2.17396771E-03  1.14392030E-05
  1.63761057E-03  7.02095596E-01  3.53614003E-02  1.48876531E-05 -1.95770094E-06
  5.79390060E-10 -1.13115169E-02 -3.01735422E-04 -4.20257384E-04 -3.45886422E-09
 -6.58084210E-03 -6.57306824E-03 -6.59156712E-03 -2.71297399E-05  2.07144511E-10
 -4.88258952E-10 -1.92301046E-03 -3.55642152E-04  2.85716506E-08  3.82117267E-05
 -3.89989430E-09  5.45063653E-03 -4.87289070E-07 -1.22194988E-03  2.59653744E-08
 -5.04544385E-04 -3.16578035E-04 -1.86905922E-04 -2.34174814E-08 -1.93143041E-11
  2.21909384E-09 -2.63665351E-05 -1.53901601E-04 -2.84178306E-09  3.04983126E-05
 -2.48714460E-10  1.56972161E-04  7.28037096E-08 -1.53018573E-04 -3.47676288E-09
 -2.46027021E-05  4.86306884E-05 -2.13368454E-04 -9.97642586E-09  2.47587445E-11
  2.77958116E-09  7.01951447E-01  3.53540351E-02 -1.48503854E-05 -1.93065047E-06
  6.92777110E-10 -1.13086255E-02  3.01425916E-04 -4.20152114E-04 -3.15885924E-09
 -6.57951165E-03 -6.57173108E-03 -6.59025557E-03  2.71114595E-05 -1.50112205E-10
 -4.18923395E-10 -8.39893068E-05  1.75765251E-03 -8.39885448E-05  1.75765706E-03
 -4.69946693E-05  2.08959221E-03 -8.40022441E-05  1.75720670E-03 -8.40012011E-05
  1.75721025E-03 -4.69970123E-05  2.08925607E-03 -1.81154600E-02  3.32407812E-02
  1.86755703E-02  1.91723084E-02 -6.20142678E-08  5.71999373E-03 -8.87549334E-03
  9.35792353E-03  1.83710627E-07  3.13334082E-03  3.32322688E-03 -1.19225984E-03
  4.78834220E-03 -1.40387891E-08 -3.65768200E-08 -1.19079219E-01  2.30683231E-01
 -8.47224218E-09  1.78349043E-01  1.84364358E-06  8.31624548E-02  2.83863155E-09
 -4.18307347E-02 -2.16499091E-07 -1.89981501E-02  2.23065271E-02 -1.97481673E-02
 -2.15377942E-09  1.85420609E-10  4.29323468E-07 -1.94135850E-01  4.19480751E-01
  7.17364427E-09 -1.58688744E-01 -1.45096619E-06  4.08208300E-01  2.30764696E-09
 -5.56917275E-02 -5.73944497E-07 -1.16693201E-02  9.48615680E-03 -7.06521262E-03