EC_B3LYP_6-31ppgd,p_pcm_Water                                           
Freq      RB3LYP                                                      6-31++G(d,p)        
Number of atoms                            I               10
Info1-9                                    I   N=           9
          19          19        1002           0           0         100
           6          18        -502
Full Title                                 C   N=           3
EC_B3LYP_6-31ppgd,p_pcm_Water       
Route                                      C   N=           6
# opt freq B3LYP/6-31++g(d,p) em=gd3bj scrf=(pcm,solvent=Wat
er)         
Charge                                     I                0
Multiplicity                               I                1
Number of electrons                        I               46
Number of alpha electrons                  I               23
Number of beta electrons                   I               23
Number of basis functions                  I              138
Number of independent functions            I              138
Number of point charges in /Mol/           I                0
Number of translation vectors              I                0
Atomic numbers                             I   N=          10
           6           6           8           6           8           8
           1           1           1           1
Nuclear charges                            R   N=          10
  6.00000000E+00  6.00000000E+00  8.00000000E+00  6.00000000E+00  8.00000000E+00
  8.00000000E+00  1.00000000E+00  1.00000000E+00  1.00000000E+00  1.00000000E+00
Current cartesian coordinates              R   N=          30
 -2.48018266E+00 -1.43056012E+00  2.10745852E-01 -2.48020875E+00  1.43054469E+00
 -2.10681652E-01  1.52855783E-01  2.09497469E+00  1.89287806E-01  1.58976916E+00
  2.14308986E-05 -1.98089174E-04  3.87462427E+00  2.58018702E-06  1.08850353E-04
  1.52872113E-01 -2.09497674E+00 -1.89324229E-01 -3.62327012E+00 -2.46873174E+00
 -1.14847658E+00 -2.98622682E+00 -1.96336252E+00  2.13898495E+00 -3.62324989E+00
  2.46868113E+00  1.14860696E+00 -2.98633698E+00  1.96337285E+00 -2.13889142E+00
Number of symbols in /Mol/                 I                0
Force Field                                I                0
Atom Types                                 C   N=          10
                                                            
                                                            
Int Atom Types                             I   N=          10
           0           0           0           0           0           0
           0           0           0           0
MM charges                                 R   N=          10
  0.00000000E+00  0.00000000E+00  0.00000000E+00  0.00000000E+00  0.00000000E+00
  0.00000000E+00  0.00000000E+00  0.00000000E+00  0.00000000E+00  0.00000000E+00
Integer atomic weights                     I   N=          10
          12          12          16          12          16          16
           1           1           1           1
Real atomic weights                        R   N=          10
  1.20000000E+01  1.20000000E+01  1.59949146E+01  1.20000000E+01  1.59949146E+01
  1.59949146E+01  1.00782504E+00  1.00782504E+00  1.00782504E+00  1.00782504E+00
Atom fragment info                         I   N=          10
           0           0           0           0           0           0
           0           0           0           0
Atom residue num                           I   N=          10
           0           0           0           0           0           0
           0           0           0           0
Nuclear spins                              I   N=          10
           0           0           0           0           0           0
           1           1           1           1
Nuclear ZEff                               R   N=          10
 -3.60000000E+00 -3.60000000E+00 -5.60000000E+00 -3.60000000E+00 -5.60000000E+00
 -5.60000000E+00 -1.00000000E+00 -1.00000000E+00 -1.00000000E+00 -1.00000000E+00
Nuclear ZNuc                               R   N=          10
  6.00000000E+00  6.00000000E+00  8.00000000E+00  6.00000000E+00  8.00000000E+00
  8.00000000E+00  1.00000000E+00  1.00000000E+00  1.00000000E+00  1.00000000E+00
Nuclear QMom                               R   N=          10
  0.00000000E+00  0.00000000E+00  0.00000000E+00  0.00000000E+00  0.00000000E+00
  0.00000000E+00  0.00000000E+00  0.00000000E+00  0.00000000E+00  0.00000000E+00
Nuclear GFac                               R   N=          10
  0.00000000E+00  0.00000000E+00  0.00000000E+00  0.00000000E+00  0.00000000E+00
  0.00000000E+00  2.79284600E+00  2.79284600E+00  2.79284600E+00  2.79284600E+00
MicOpt                                     I   N=          10
          -1          -1          -1          -1          -1          -1
          -1          -1          -1          -1
Number of residues                         I                0
Number of secondary structures             I                0
Redundant internal dimensions              I   N=           4
          46          10          17          19
Redundant internal coordinate indices      I   N=         184
           1           2           0           0           1           6
           0           0           1           7           0           0
           1           8           0           0           2           3
           0           0           2           9           0           0
           2          10           0           0           3           4
           0           0           4           5           0           0
           4           6           0           0           2           1
           6           0           2           1           7           0
           2           1           8           0           6           1
           7           0           6           1           8           0
           7           1           8           0           1           2
           3           0           1           2           9           0
           1           2          10           0           3           2
           9           0           3           2          10           0
           9           2          10           0           2           3
           4           0           3           4           5           0
           3           4           6           0           5           4
           6           0           1           6           4           0
           6           1           2           3           6           1
           2           9           6           1           2          10
           7           1           2           3           7           1
           2           9           7           1           2          10
           8           1           2           3           8           1
           2           9           8           1           2          10
           2           1           6           4           7           1
           6           4           8           1           6           4
           1           2           3           4           9           2
           3           4          10           2           3           4
           2           3           4           5           2           3
           4           6           3           4           6           1
           5           4           6           1
Redundant internal coordinates             R   N=          46
  2.89197543E+00  2.74490127E+00  2.05716670E+00  2.06350797E+00  2.74489920E+00
  2.05716695E+00  2.06350783E+00  2.54744070E+00  2.28485512E+00  2.54744169E+00
  1.79080745E+00  1.98557340E+00  1.97318173E+00  1.89079260E+00  1.88487371E+00
  1.92926532E+00  1.79080030E+00  1.98556070E+00  1.97319773E+00  1.89079449E+00
  1.88487329E+00  1.92926708E+00  1.90834744E+00  2.17008876E+00  1.94300803E+00
  2.17008847E+00  1.90835705E+00 -3.69868752E-01 -2.40816913E+00  1.65567006E+00
 -2.40817723E+00  1.83670770E+00 -3.82638414E-01  1.65566741E+00 -3.82632967E-01
 -2.60197908E+00  3.16553401E-01  2.42152471E+00 -1.77158200E+00  3.16679570E-01
  2.42163346E+00 -1.77147032E+00  3.01068923E+00 -1.31219037E-01 -1.31000302E-01
  3.01027673E+00
ZRed-IntVec                                I   N=          46
           0           0           0           0           0           0
           0           0           0           0           0           0
           0           0           0           0           0           0
           0           0           0           0           0           0
           0           0           0           0           0           0
           0           0           0           0           0           0
           0           0           0           0           0           0
           0           0           0           0
ZRed-FPVec                                 R   N=          46
  0.00000000E+00  0.00000000E+00  0.00000000E+00  0.00000000E+00  0.00000000E+00
  0.00000000E+00  0.00000000E+00  0.00000000E+00  0.00000000E+00  0.00000000E+00
  0.00000000E+00  0.00000000E+00  0.00000000E+00  0.00000000E+00  0.00000000E+00
  0.00000000E+00  0.00000000E+00  0.00000000E+00  0.00000000E+00  0.00000000E+00
  0.00000000E+00  0.00000000E+00  0.00000000E+00  0.00000000E+00  0.00000000E+00
  0.00000000E+00  0.00000000E+00  0.00000000E+00  0.00000000E+00  0.00000000E+00
  0.00000000E+00  0.00000000E+00  0.00000000E+00  0.00000000E+00  0.00000000E+00
  0.00000000E+00  0.00000000E+00  0.00000000E+00  0.00000000E+00  0.00000000E+00
  0.00000000E+00  0.00000000E+00  0.00000000E+00  0.00000000E+00  0.00000000E+00
  0.00000000E+00
ZRed-Constraint1                           R   N=          46
  2.89197543E+00  2.74490127E+00  2.05716670E+00  2.06350797E+00  2.74489920E+00
  2.05716695E+00  2.06350783E+00  2.54744070E+00  2.28485512E+00  2.54744169E+00
  1.79080745E+00  1.98557340E+00  1.97318173E+00  1.89079260E+00  1.88487371E+00
  1.92926532E+00  1.79080030E+00  1.98556070E+00  1.97319773E+00  1.89079449E+00
  1.88487329E+00  1.92926708E+00  1.90834744E+00  2.17008876E+00  1.94300803E+00
  2.17008847E+00  1.90835705E+00 -3.69868752E-01 -2.40816913E+00  1.65567006E+00
 -2.40817723E+00  1.83670770E+00 -3.82638414E-01  1.65566741E+00 -3.82632967E-01
 -2.60197908E+00  3.16553401E-01  2.42152471E+00 -1.77158200E+00  3.16679570E-01
  2.42163346E+00 -1.77147032E+00  3.01068923E+00 -1.31219037E-01 -1.31000302E-01
  3.01027673E+00
ZRed-Constraint2                           R   N=          46
  2.82297127E+00  2.67409076E+00  2.06603660E+00  2.06974934E+00  2.67409113E+00
  2.06603714E+00  2.06974977E+00  2.58280661E+00  2.30312576E+00  2.58280631E+00
  1.79495199E+00  1.96455044E+00  1.96326177E+00  1.93791457E+00  1.89557963E+00
  1.90470599E+00  1.79495204E+00  1.96455076E+00  1.96326206E+00  1.93791440E+00
  1.89557953E+00  1.90470562E+00  1.85883751E+00  2.17236830E+00  1.93844853E+00
  2.17236848E+00  1.85883741E+00 -5.55302593E-01 -2.64204786E+00  1.48068807E+00
 -2.64204787E+00  1.55439217E+00 -6.06057206E-01  1.48068804E+00 -6.06057226E-01
 -2.76650661E+00  4.54831636E-01  2.55996203E+00 -1.62884176E+00  4.54829540E-01
  2.55996026E+00 -1.62884416E+00  2.95577197E+00 -1.85820218E-01 -1.85823741E-01
  2.95576938E+00
SymInf integers                            I   N=          26
           1           1           1           1           1           0
           0           0           0           0           0           0
           0           0           0           0           0           0
           0           0           0           0           0           0
           0           0
RotTr to input orientation                 R   N=          12
  9.98386283E-01 -4.77880429E-02 -3.06778974E-02 -4.99672022E-02 -9.95952670E-01
 -7.47098244E-02 -2.69834975E-02  7.61221526E-02 -9.96733319E-01  1.23893314E+00
 -5.93064722E-02 -3.80533483E-02
Number of contracted shells                I               46
Number of primitive shells                 I               96
Pure/Cartesian d shells                    I                1
Pure/Cartesian f shells                    I                0
Highest angular momentum                   I                2
Largest degree of contraction              I                6
Shell types                                I   N=          46
           0          -1          -1          -1           2           0
          -1          -1          -1           2           0          -1
          -1          -1           2           0          -1          -1
          -1           2           0          -1          -1          -1
           2           0          -1          -1          -1           2
           0           0           0           1           0           0
           0           1           0           0           0           1
           0           0           0           1
Number of primitives per shell             I   N=          46
           6           3           1           1           1           6
           3           1           1           1           6           3
           1           1           1           6           3           1
           1           1           6           3           1           1
           1           6           3           1           1           1
           3           1           1           1           3           1
           1           1           3           1           1           1
           3           1           1           1
Shell to atom map                          I   N=          46
           1           1           1           1           1           2
           2           2           2           2           3           3
           3           3           3           4           4           4
           4           4           5           5           5           5
           5           6           6           6           6           6
           7           7           7           7           8           8
           8           8           9           9           9           9
          10          10          10          10
Primitive exponents                        R   N=          96
  3.04752488E+03  4.57369518E+02  1.03948685E+02  2.92101553E+01  9.28666296E+00
  3.16392696E+00  7.86827235E+00  1.88128854E+00  5.44249258E-01  1.68714478E-01
  4.38000000E-02  8.00000000E-01  3.04752488E+03  4.57369518E+02  1.03948685E+02
  2.92101553E+01  9.28666296E+00  3.16392696E+00  7.86827235E+00  1.88128854E+00
  5.44249258E-01  1.68714478E-01  4.38000000E-02  8.00000000E-01  5.48467166E+03
  8.25234946E+02  1.88046958E+02  5.29645000E+01  1.68975704E+01  5.79963534E+00
  1.55396162E+01  3.59993359E+00  1.01376175E+00  2.70005823E-01  8.45000000E-02
  8.00000000E-01  3.04752488E+03  4.57369518E+02  1.03948685E+02  2.92101553E+01
  9.28666296E+00  3.16392696E+00  7.86827235E+00  1.88128854E+00  5.44249258E-01
  1.68714478E-01  4.38000000E-02  8.00000000E-01  5.48467166E+03  8.25234946E+02
  1.88046958E+02  5.29645000E+01  1.68975704E+01  5.79963534E+00  1.55396162E+01
  3.59993359E+00  1.01376175E+00  2.70005823E-01  8.45000000E-02  8.00000000E-01
  5.48467166E+03  8.25234946E+02  1.88046958E+02  5.29645000E+01  1.68975704E+01
  5.79963534E+00  1.55396162E+01  3.59993359E+00  1.01376175E+00  2.70005823E-01
  8.45000000E-02  8.00000000E-01  1.87311370E+01  2.82539436E+00  6.40121692E-01
  1.61277759E-01  3.60000000E-02  1.10000000E+00  1.87311370E+01  2.82539436E+00
  6.40121692E-01  1.61277759E-01  3.60000000E-02  1.10000000E+00  1.87311370E+01
  2.82539436E+00  6.40121692E-01  1.61277759E-01  3.60000000E-02  1.10000000E+00
  1.87311370E+01  2.82539436E+00  6.40121692E-01  1.61277759E-01  3.60000000E-02
  1.10000000E+00
Contraction coefficients                   R   N=          96
  1.83473713E-03  1.40373228E-02  6.88426223E-02  2.32184443E-01  4.67941348E-01
  3.62311985E-01 -1.19332420E-01 -1.60854152E-01  1.14345644E+00  1.00000000E+00
  1.00000000E+00  1.00000000E+00  1.83473713E-03  1.40373228E-02  6.88426223E-02
  2.32184443E-01  4.67941348E-01  3.62311985E-01 -1.19332420E-01 -1.60854152E-01
  1.14345644E+00  1.00000000E+00  1.00000000E+00  1.00000000E+00  1.83107443E-03
  1.39501722E-02  6.84450781E-02  2.32714336E-01  4.70192898E-01  3.58520853E-01
 -1.10777550E-01 -1.48026263E-01  1.13076702E+00  1.00000000E+00  1.00000000E+00
  1.00000000E+00  1.83473713E-03  1.40373228E-02  6.88426223E-02  2.32184443E-01
  4.67941348E-01  3.62311985E-01 -1.19332420E-01 -1.60854152E-01  1.14345644E+00
  1.00000000E+00  1.00000000E+00  1.00000000E+00  1.83107443E-03  1.39501722E-02
  6.84450781E-02  2.32714336E-01  4.70192898E-01  3.58520853E-01 -1.10777550E-01
 -1.48026263E-01  1.13076702E+00  1.00000000E+00  1.00000000E+00  1.00000000E+00
  1.83107443E-03  1.39501722E-02  6.84450781E-02  2.32714336E-01  4.70192898E-01
  3.58520853E-01 -1.10777550E-01 -1.48026263E-01  1.13076702E+00  1.00000000E+00
  1.00000000E+00  1.00000000E+00  3.34946043E-02  2.34726953E-01  8.13757326E-01
  1.00000000E+00  1.00000000E+00  1.00000000E+00  3.34946043E-02  2.34726953E-01
  8.13757326E-01  1.00000000E+00  1.00000000E+00  1.00000000E+00  3.34946043E-02
  2.34726953E-01  8.13757326E-01  1.00000000E+00  1.00000000E+00  1.00000000E+00
  3.34946043E-02  2.34726953E-01  8.13757326E-01  1.00000000E+00  1.00000000E+00
  1.00000000E+00
P(S=P) Contraction coefficients            R   N=          96
  0.00000000E+00  0.00000000E+00  0.00000000E+00  0.00000000E+00  0.00000000E+00
  0.00000000E+00  6.89990666E-02  3.16423961E-01  7.44308291E-01  1.00000000E+00
  1.00000000E+00  0.00000000E+00  0.00000000E+00  0.00000000E+00  0.00000000E+00
  0.00000000E+00  0.00000000E+00  0.00000000E+00  6.89990666E-02  3.16423961E-01
  7.44308291E-01  1.00000000E+00  1.00000000E+00  0.00000000E+00  0.00000000E+00
  0.00000000E+00  0.00000000E+00  0.00000000E+00  0.00000000E+00  0.00000000E+00
  7.08742682E-02  3.39752839E-01  7.27158577E-01  1.00000000E+00  1.00000000E+00
  0.00000000E+00  0.00000000E+00  0.00000000E+00  0.00000000E+00  0.00000000E+00
  0.00000000E+00  0.00000000E+00  6.89990666E-02  3.16423961E-01  7.44308291E-01
  1.00000000E+00  1.00000000E+00  0.00000000E+00  0.00000000E+00  0.00000000E+00
  0.00000000E+00  0.00000000E+00  0.00000000E+00  0.00000000E+00  7.08742682E-02
  3.39752839E-01  7.27158577E-01  1.00000000E+00  1.00000000E+00  0.00000000E+00
  0.00000000E+00  0.00000000E+00  0.00000000E+00  0.00000000E+00  0.00000000E+00
  0.00000000E+00  7.08742682E-02  3.39752839E-01  7.27158577E-01  1.00000000E+00
  1.00000000E+00  0.00000000E+00  0.00000000E+00  0.00000000E+00  0.00000000E+00
  0.00000000E+00  0.00000000E+00  0.00000000E+00  0.00000000E+00  0.00000000E+00
  0.00000000E+00  0.00000000E+00  0.00000000E+00  0.00000000E+00  0.00000000E+00
  0.00000000E+00  0.00000000E+00  0.00000000E+00  0.00000000E+00  0.00000000E+00
  0.00000000E+00  0.00000000E+00  0.00000000E+00  0.00000000E+00  0.00000000E+00
  0.00000000E+00
Coordinates of each shell                  R   N=         138
 -2.48018266E+00 -1.43056012E+00  2.10745852E-01 -2.48018266E+00 -1.43056012E+00
  2.10745852E-01 -2.48018266E+00 -1.43056012E+00  2.10745852E-01 -2.48018266E+00
 -1.43056012E+00  2.10745852E-01 -2.48018266E+00 -1.43056012E+00  2.10745852E-01
 -2.48020875E+00  1.43054469E+00 -2.10681652E-01 -2.48020875E+00  1.43054469E+00
 -2.10681652E-01 -2.48020875E+00  1.43054469E+00 -2.10681652E-01 -2.48020875E+00
  1.43054469E+00 -2.10681652E-01 -2.48020875E+00  1.43054469E+00 -2.10681652E-01
  1.52855783E-01  2.09497469E+00  1.89287806E-01  1.52855783E-01  2.09497469E+00
  1.89287806E-01  1.52855783E-01  2.09497469E+00  1.89287806E-01  1.52855783E-01
  2.09497469E+00  1.89287806E-01  1.52855783E-01  2.09497469E+00  1.89287806E-01
  1.58976916E+00  2.14308986E-05 -1.98089174E-04  1.58976916E+00  2.14308986E-05
 -1.98089174E-04  1.58976916E+00  2.14308986E-05 -1.98089174E-04  1.58976916E+00
  2.14308986E-05 -1.98089174E-04  1.58976916E+00  2.14308986E-05 -1.98089174E-04
  3.87462427E+00  2.58018702E-06  1.08850353E-04  3.87462427E+00  2.58018702E-06
  1.08850353E-04  3.87462427E+00  2.58018702E-06  1.08850353E-04  3.87462427E+00
  2.58018702E-06  1.08850353E-04  3.87462427E+00  2.58018702E-06  1.08850353E-04
  1.52872113E-01 -2.09497674E+00 -1.89324229E-01  1.52872113E-01 -2.09497674E+00
 -1.89324229E-01  1.52872113E-01 -2.09497674E+00 -1.89324229E-01  1.52872113E-01
 -2.09497674E+00 -1.89324229E-01  1.52872113E-01 -2.09497674E+00 -1.89324229E-01
 -3.62327012E+00 -2.46873174E+00 -1.14847658E+00 -3.62327012E+00 -2.46873174E+00
 -1.14847658E+00 -3.62327012E+00 -2.46873174E+00 -1.14847658E+00 -3.62327012E+00
 -2.46873174E+00 -1.14847658E+00 -2.98622682E+00 -1.96336252E+00  2.13898495E+00
 -2.98622682E+00 -1.96336252E+00  2.13898495E+00 -2.98622682E+00 -1.96336252E+00
  2.13898495E+00 -2.98622682E+00 -1.96336252E+00  2.13898495E+00 -3.62324989E+00
  2.46868113E+00  1.14860696E+00 -3.62324989E+00  2.46868113E+00  1.14860696E+00
 -3.62324989E+00  2.46868113E+00  1.14860696E+00 -3.62324989E+00  2.46868113E+00
  1.14860696E+00 -2.98633698E+00  1.96337285E+00 -2.13889142E+00 -2.98633698E+00
  1.96337285E+00 -2.13889142E+00 -2.98633698E+00  1.96337285E+00 -2.13889142E+00
 -2.98633698E+00  1.96337285E+00 -2.13889142E+00
Num ILSW                                   I              100
ILSW                                       I   N=         100
           0           1           0           0           2           0
           0           0           0           0         402          -1
           5           0           0           0           2           0
           0           0           1           0           1           0
           1           0           0           0           0           0
           0           0      100000           0          -1           0
           0           0           0           0           0           0
           0           0           0           1           0           0
           0 -2000000000           1           0           0           0
           0           0         141          52           0           0
           0           0           5           0           0           0
           0           0           0           0           0           1
           0           0           0           0           0           0
           0           0           0           0           0           0
           0           0           0           0           0           0
           0           0           0           0           0           0
           0           0           0           0
Num RLSW                                   I               52
RLSW                                       R   N=          52
  8.00000000E-01  7.20000000E-01  1.00000000E+00  8.10000000E-01  2.00000000E-01
  0.00000000E+00  0.00000000E+00  1.00000000E+00  0.00000000E+00  0.00000000E+00
  0.00000000E+00  0.00000000E+00  1.00000000E+00  0.00000000E+00  0.00000000E+00
  0.00000000E+00  0.00000000E+00  1.00000000E+00  0.00000000E+00  0.00000000E+00
  0.00000000E+00  0.00000000E+00  1.00000000E+00  0.00000000E+00  0.00000000E+00
  0.00000000E+00  0.00000000E+00  1.00000000E+00  0.00000000E+00  0.00000000E+00
  0.00000000E+00  0.00000000E+00  1.00000000E+00  0.00000000E+00  0.00000000E+00
  0.00000000E+00  0.00000000E+00  0.00000000E+00  1.00000000E+00  1.00000000E+00
  0.00000000E+00  1.00000000E+00  0.00000000E+00  0.00000000E+00  0.00000000E+00
  0.00000000E+00  0.00000000E+00  0.00000000E+00  0.00000000E+00  0.00000000E+00
  0.00000000E+00  0.00000000E+00
MxBond                                     I                4
NBond                                      I   N=          10
           4           4           2           3           1           2
           1           1           1           1
IBond                                      I   N=          40
           2           6           7           8           1           3
           9          10           2           4           0           0
           3           5           6           0           4           0
           0           0           1           4           0           0
           1           0           0           0           1           0
           0           0           2           0           0           0
           2           0           0           0
RBond                                      R   N=          40
  1.00000000E+00  1.00000000E+00  1.00000000E+00  1.00000000E+00  1.00000000E+00
  1.00000000E+00  1.00000000E+00  1.00000000E+00  1.00000000E+00  1.50000000E+00
  0.00000000E+00  0.00000000E+00  1.50000000E+00  2.00000000E+00  1.50000000E+00
  0.00000000E+00  2.00000000E+00  0.00000000E+00  0.00000000E+00  0.00000000E+00
  1.00000000E+00  1.50000000E+00  0.00000000E+00  0.00000000E+00  1.00000000E+00
  0.00000000E+00  0.00000000E+00  0.00000000E+00  1.00000000E+00  0.00000000E+00
  0.00000000E+00  0.00000000E+00  1.00000000E+00  0.00000000E+00  0.00000000E+00
  0.00000000E+00  1.00000000E+00  0.00000000E+00  0.00000000E+00  0.00000000E+00
Virial Ratio                               R      2.009076821474353E+00
SCF Energy                                 R     -3.424442608767898E+02
Total Energy                               R     -3.424442608767898E+02
RMS Force                                  R      9.524787794915029E-05
RMS Density                                R      5.244208705660916E-09
NImag                                      I                0
Job Status                                 I                1
Nuclear derivative order                   I                2
PCM-NSphere                                I               10
PCM-NGenSphere                             I               10
PCM-NOrd                                   I   N=          10
           1           2           3           4           5           6
           7           8           9          10
PCM-SphereRadii                            R   N=          10
  4.00253442E+00  4.00253442E+00  3.63772279E+00  4.00253442E+00  3.63772279E+00
  3.63772279E+00  2.99956228E+00  2.99956228E+00  2.99956228E+00  2.99956228E+00
PCM-SphereLoc                              R   N=          30
 -2.48018266E+00 -1.43056012E+00  2.10745852E-01 -2.48020875E+00  1.43054469E+00
 -2.10681652E-01  1.52855783E-01  2.09497469E+00  1.89287806E-01  1.58976916E+00
  2.14308986E-05 -1.98089174E-04  3.87462427E+00  2.58018702E-06  1.08850353E-04
  1.52872113E-01 -2.09497674E+00 -1.89324229E-01 -3.62327012E+00 -2.46873174E+00
 -1.14847658E+00 -2.98622682E+00 -1.96336252E+00  2.13898495E+00 -3.62324989E+00
  2.46868113E+00  1.14860696E+00 -2.98633698E+00  1.96337285E+00 -2.13889142E+00
External E-field                           R   N=          35
  0.00000000E+00  0.00000000E+00  0.00000000E+00  0.00000000E+00  0.00000000E+00
  0.00000000E+00  0.00000000E+00  0.00000000E+00  0.00000000E+00  0.00000000E+00
  0.00000000E+00  0.00000000E+00  0.00000000E+00  0.00000000E+00  0.00000000E+00
  0.00000000E+00  0.00000000E+00  0.00000000E+00  0.00000000E+00  0.00000000E+00
  0.00000000E+00  0.00000000E+00  0.00000000E+00  0.00000000E+00  0.00000000E+00
  0.00000000E+00  0.00000000E+00  0.00000000E+00  0.00000000E+00  0.00000000E+00
  0.00000000E+00  0.00000000E+00  0.00000000E+00  0.00000000E+00  0.00000000E+00
IOpCl                                      I                0
IROHF                                      I                0
Alpha Orbital Energies                     R   N=         138
 -1.92272198E+01 -1.92272124E+01 -1.91652027E+01 -1.03854669E+01 -1.02705896E+01
 -1.02703703E+01 -1.17687080E+00 -1.06371381E+00 -1.05715513E+00 -7.92265579E-01
 -6.89662575E-01 -6.19530825E-01 -5.51397263E-01 -5.29993455E-01 -5.13265582E-01
 -4.61763843E-01 -4.52578477E-01 -4.47140060E-01 -3.96128121E-01 -3.90000735E-01
 -3.30282491E-01 -3.24304780E-01 -3.19326233E-01 -7.76637978E-03  9.11249634E-03
  9.59422230E-03  2.02173085E-02  2.38294553E-02  5.09455488E-02  5.72816005E-02
  6.50519451E-02  7.68607712E-02  7.70261740E-02  9.99288969E-02  1.09869898E-01
  1.21127374E-01  1.25033735E-01  1.34812249E-01  1.41558218E-01  1.47557324E-01
  1.56095084E-01  1.78956267E-01  1.92284357E-01  1.99125683E-01  2.14118798E-01
  2.27975313E-01  2.42235136E-01  2.48570516E-01  2.72386698E-01  2.72538185E-01
  2.78632241E-01  2.85685624E-01  2.98608249E-01  3.22029036E-01  3.24059602E-01
  3.38052391E-01  3.60866163E-01  3.64600868E-01  3.72615519E-01  3.81545024E-01
  3.83058723E-01  4.96053142E-01  6.38858026E-01  6.52052867E-01  6.87356602E-01
  6.92674068E-01  7.24006296E-01  7.71584480E-01  7.75583498E-01  8.61784528E-01
  8.75379466E-01  9.33392120E-01  9.74055185E-01  1.00476808E+00  1.06240822E+00
  1.06305429E+00  1.13006344E+00  1.15542139E+00  1.20317823E+00  1.21948589E+00
  1.25171591E+00  1.27670565E+00  1.28487417E+00  1.29318246E+00  1.31158112E+00
  1.34009671E+00  1.39266980E+00  1.40685673E+00  1.43772015E+00  1.50913872E+00
  1.56364872E+00  1.59664154E+00  1.64261553E+00  1.67561931E+00  1.76491526E+00
  1.78387587E+00  1.81946343E+00  1.82031383E+00  1.85457005E+00  1.89883932E+00
  1.90455919E+00  1.91971566E+00  1.93537301E+00  1.97004117E+00  1.99026064E+00
  2.02860912E+00  2.09666081E+00  2.15298709E+00  2.21045094E+00  2.23804318E+00
  2.36585982E+00  2.43266403E+00  2.44435324E+00  2.48390083E+00  2.54463316E+00
  2.55852646E+00  2.61316094E+00  2.69023091E+00  2.69405876E+00  2.77188014E+00
  2.78488035E+00  2.81847179E+00  2.83091726E+00  2.89303217E+00  2.98267533E+00
  3.08258640E+00  3.18743005E+00  3.19820886E+00  3.26166290E+00  3.32892772E+00
  3.40113407E+00  3.51617463E+00  4.13555139E+00  4.31327712E+00  4.42424097E+00
  4.52064111E+00  4.56457148E+00  4.63267308E+00
Alpha MO coefficients                      R   N=       19044
  2.85420161E-05  1.55992701E-04 -2.05525940E-04  3.32214888E-05  2.69838566E-05