DMC_B3LYP_6-31ppgd,p_pcm_Water                                          
Freq      RB3LYP                                                      6-31++G(d,p)        
Number of atoms                            I               12
Info1-9                                    I   N=           9
          21          21        1002           0           0         100
           6          18        -502
Full Title                                 C   N=           3
DMC_B3LYP_6-31ppgd,p_pcm_Water      
Route                                      C   N=           6
# opt freq B3LYP/6-31++g(d,p) em=gd3bj scrf=(pcm,solvent=Wat
er)         
Charge                                     I                0
Multiplicity                               I                1
Number of electrons                        I               48
Number of alpha electrons                  I               24
Number of beta electrons                   I               24
Number of basis functions                  I              150
Number of independent functions            I              150
Number of point charges in /Mol/           I                0
Number of translation vectors              I                0
Atomic numbers                             I   N=          12
           6           8           6           8           8           6
           1           1           1           1           1           1
Nuclear charges                            R   N=          12
  6.00000000E+00  8.00000000E+00  6.00000000E+00  8.00000000E+00  8.00000000E+00
  6.00000000E+00  1.00000000E+00  1.00000000E+00  1.00000000E+00  1.00000000E+00
  1.00000000E+00  1.00000000E+00
Current cartesian coordinates              R   N=          36
  4.44962277E+00 -3.69336314E-02  7.58032726E-05  2.04731230E+00 -1.33859215E+00
 -3.03388546E-05  1.93480364E-17  1.40497169E-01 -1.41224485E-04 -2.94763247E-17
  2.44296665E+00 -2.32182853E-05 -2.04731230E+00 -1.33859215E+00 -3.03928245E-05
 -4.44962277E+00 -3.69336284E-02  7.58246673E-05  5.86653634E+00 -1.52737113E+00
  1.51324500E-04  4.62511402E+00  1.13216543E+00 -1.69001339E+00  4.62495743E+00
  1.13218658E+00  1.69016660E+00 -5.86653634E+00 -1.52737112E+00  1.52619326E-04
 -4.62511457E+00  1.13216445E+00 -1.69001399E+00 -4.62495691E+00  1.13218751E+00
  1.69016602E+00
Number of symbols in /Mol/                 I                0
Force Field                                I                0
Atom Types                                 C   N=          12
                                                            
                                                            
                        
Int Atom Types                             I   N=          12
           0           0           0           0           0           0
           0           0           0           0           0           0
MM charges                                 R   N=          12
  0.00000000E+00  0.00000000E+00  0.00000000E+00  0.00000000E+00  0.00000000E+00
  0.00000000E+00  0.00000000E+00  0.00000000E+00  0.00000000E+00  0.00000000E+00
  0.00000000E+00  0.00000000E+00
Integer atomic weights                     I   N=          12
          12          16          12          16          16          12
           1           1           1           1           1           1
Real atomic weights                        R   N=          12
  1.20000000E+01  1.59949146E+01  1.20000000E+01  1.59949146E+01  1.59949146E+01
  1.20000000E+01  1.00782504E+00  1.00782504E+00  1.00782504E+00  1.00782504E+00
  1.00782504E+00  1.00782504E+00
Atom fragment info                         I   N=          12
           0           0           0           0           0           0
           0           0           0           0           0           0
Atom residue num                           I   N=          12
           0           0           0           0           0           0
           0           0           0           0           0           0
Nuclear spins                              I   N=          12
           0           0           0           0           0           0
           1           1           1           1           1           1
Nuclear ZEff                               R   N=          12
 -3.60000000E+00 -5.60000000E+00 -3.60000000E+00 -5.60000000E+00 -5.60000000E+00
 -3.60000000E+00 -1.00000000E+00 -1.00000000E+00 -1.00000000E+00 -1.00000000E+00
 -1.00000000E+00 -1.00000000E+00
Nuclear ZNuc                               R   N=          12
  6.00000000E+00  8.00000000E+00  6.00000000E+00  8.00000000E+00  8.00000000E+00
  6.00000000E+00  1.00000000E+00  1.00000000E+00  1.00000000E+00  1.00000000E+00
  1.00000000E+00  1.00000000E+00
Nuclear QMom                               R   N=          12
  0.00000000E+00  0.00000000E+00  0.00000000E+00  0.00000000E+00  0.00000000E+00
  0.00000000E+00  0.00000000E+00  0.00000000E+00  0.00000000E+00  0.00000000E+00
  0.00000000E+00  0.00000000E+00
Nuclear GFac                               R   N=          12
  0.00000000E+00  0.00000000E+00  0.00000000E+00  0.00000000E+00  0.00000000E+00
  0.00000000E+00  2.79284600E+00  2.79284600E+00  2.79284600E+00  2.79284600E+00
  2.79284600E+00  2.79284600E+00
MicOpt                                     I   N=          12
          -1          -1          -1          -1          -1          -1
          -1          -1          -1          -1          -1          -1
Number of residues                         I                0
Number of secondary structures             I                0
Redundant internal dimensions              I   N=           4
          38          11          17          10
Redundant internal coordinate indices      I   N=         152
           1           2           0           0           1           7
           0           0           1           8           0           0
           1           9           0           0           2           3
           0           0           3           4           0           0
           3           5           0           0           5           6
           0           0           6          10           0           0
           6          11           0           0           6          12
           0           0           2           1           7           0
           2           1           8           0           2           1
           9           0           7           1           8           0
           7           1           9           0           8           1
           9           0           1           2           3           0
           2           3           4           0           2           3
           5           0           4           3           5           0
           3           5           6           0           5           6
          10           0           5           6          11           0
           5           6          12           0          10           6
          11           0          10           6          12           0
          11           6          12           0           7           1
           2           3           8           1           2           3
           9           1           2           3           1           2
           3           4           1           2           3           5
           2           3           5           6           4           3
           5           6           3           5           6          10
           3           5           6          11           3           5
           6          12
Redundant internal coordinates             R   N=          38
  2.73229034E+00  2.05646493E+00  2.06252061E+00  2.06252059E+00  2.52570641E+00
  2.30246949E+00  2.52570641E+00  2.73229034E+00  2.05646493E+00  2.06252061E+00
  2.06252059E+00  1.83435717E+00  1.92283813E+00  1.92284005E+00  1.93073818E+00
  1.93073770E+00  1.92082958E+00  2.01940145E+00  2.19643379E+00  1.89031772E+00
  2.19643379E+00  2.01940145E+00  1.83435717E+00  1.92283812E+00  1.92284007E+00
  1.93073815E+00  1.93073770E+00  1.92082960E+00 -3.14159018E+00 -1.06125263E+00
  1.06125715E+00 -7.29645792E-05 -3.14150993E+00  3.14150987E+00  7.29082434E-05
  3.14159085E+00  1.06125334E+00 -1.06125647E+00
ZRed-IntVec                                I   N=          38
           0           0           0           0           0           0
           0           0           0           0           0           0
           0           0           0           0           0           0
           0           0           0           0           0           0
           0           0           0           0           0           0
           0           0           0           0           0           0
           0           0
ZRed-FPVec                                 R   N=          38
  0.00000000E+00  0.00000000E+00  0.00000000E+00  0.00000000E+00  0.00000000E+00
  0.00000000E+00  0.00000000E+00  0.00000000E+00  0.00000000E+00  0.00000000E+00
  0.00000000E+00  0.00000000E+00  0.00000000E+00  0.00000000E+00  0.00000000E+00
  0.00000000E+00  0.00000000E+00  0.00000000E+00  0.00000000E+00  0.00000000E+00
  0.00000000E+00  0.00000000E+00  0.00000000E+00  0.00000000E+00  0.00000000E+00
  0.00000000E+00  0.00000000E+00  0.00000000E+00  0.00000000E+00  0.00000000E+00
  0.00000000E+00  0.00000000E+00  0.00000000E+00  0.00000000E+00  0.00000000E+00
  0.00000000E+00  0.00000000E+00  0.00000000E+00
ZRed-Constraint1                           R   N=          38
  2.73229034E+00  2.05646493E+00  2.06252061E+00  2.06252059E+00  2.52570641E+00
  2.30246949E+00  2.52570641E+00  2.73229034E+00  2.05646493E+00  2.06252061E+00
  2.06252059E+00  1.83435717E+00  1.92283813E+00  1.92284005E+00  1.93073818E+00
  1.93073770E+00  1.92082958E+00  2.01940145E+00  2.19643379E+00  1.89031772E+00
  2.19643379E+00  2.01940145E+00  1.83435717E+00  1.92283812E+00  1.92284007E+00
  1.93073815E+00  1.93073770E+00  1.92082960E+00 -3.14159018E+00 -1.06125263E+00
  1.06125715E+00 -7.29645762E-05 -3.14150993E+00  3.14150987E+00  7.29082434E-05
  3.14159085E+00  1.06125334E+00 -1.06125647E+00
ZRed-Constraint2                           R   N=          38
  2.69429626E+00  2.06655519E+00  2.06853484E+00  2.06853598E+00  2.56323627E+00
  2.30890584E+00  2.56323649E+00  2.69429626E+00  2.06655332E+00  2.06853428E+00
  2.06853705E+00  1.88643117E+00  1.92992586E+00  1.92992535E+00  1.89161343E+00
  1.89161321E+00  1.93288662E+00  1.98679085E+00  2.19733619E+00  1.88851248E+00
  2.19733663E+00  1.98679147E+00  1.88643221E+00  1.92992532E+00  1.92992429E+00
  1.89161457E+00  1.89161524E+00  1.93288421E+00 -3.14158801E+00 -1.07363792E+00
  1.07364777E+00 -6.09309921E-07  3.14159249E+00  3.14159053E+00 -1.67868046E-06
  3.14158944E+00  1.07363766E+00 -1.07364386E+00
SymInf integers                            I   N=          26
           1           1           1           1           1           0
           0           0           0           0           0           0
           0           0           0           0           0           0
           0           0           0           0           0           0
           0           0
RotTr to input orientation                 R   N=          12
 -9.82225777E-01  3.91317690E-02  1.83578942E-01  1.82298111E-01 -3.41413842E-02
  9.82650378E-01  4.47204868E-02  9.98650625E-01  2.64009000E-02 -1.98477890E-02
  3.67220889E-03  1.92989810E-01
Number of contracted shells                I               54
Number of primitive shells                 I              108
Pure/Cartesian d shells                    I                1
Pure/Cartesian f shells                    I                0
Highest angular momentum                   I                2
Largest degree of contraction              I                6
Shell types                                I   N=          54
           0          -1          -1          -1           2           0
          -1          -1          -1           2           0          -1
          -1          -1           2           0          -1          -1
          -1           2           0          -1          -1          -1
           2           0          -1          -1          -1           2
           0           0           0           1           0           0
           0           1           0           0           0           1
           0           0           0           1           0           0
           0           1           0           0           0           1
Number of primitives per shell             I   N=          54
           6           3           1           1           1           6
           3           1           1           1           6           3
           1           1           1           6           3           1
           1           1           6           3           1           1
           1           6           3           1           1           1
           3           1           1           1           3           1
           1           1           3           1           1           1
           3           1           1           1           3           1
           1           1           3           1           1           1
Shell to atom map                          I   N=          54
           1           1           1           1           1           2
           2           2           2           2           3           3
           3           3           3           4           4           4
           4           4           5           5           5           5
           5           6           6           6           6           6
           7           7           7           7           8           8
           8           8           9           9           9           9
          10          10          10          10          11          11
          11          11          12          12          12          12
Primitive exponents                        R   N=         108
  3.04752488E+03  4.57369518E+02  1.03948685E+02  2.92101553E+01  9.28666296E+00
  3.16392696E+00  7.86827235E+00  1.88128854E+00  5.44249258E-01  1.68714478E-01
  4.38000000E-02  8.00000000E-01  5.48467166E+03  8.25234946E+02  1.88046958E+02
  5.29645000E+01  1.68975704E+01  5.79963534E+00  1.55396162E+01  3.59993359E+00
  1.01376175E+00  2.70005823E-01  8.45000000E-02  8.00000000E-01  3.04752488E+03
  4.57369518E+02  1.03948685E+02  2.92101553E+01  9.28666296E+00  3.16392696E+00
  7.86827235E+00  1.88128854E+00  5.44249258E-01  1.68714478E-01  4.38000000E-02
  8.00000000E-01  5.48467166E+03  8.25234946E+02  1.88046958E+02  5.29645000E+01
  1.68975704E+01  5.79963534E+00  1.55396162E+01  3.59993359E+00  1.01376175E+00
  2.70005823E-01  8.45000000E-02  8.00000000E-01  5.48467166E+03  8.25234946E+02
  1.88046958E+02  5.29645000E+01  1.68975704E+01  5.79963534E+00  1.55396162E+01
  3.59993359E+00  1.01376175E+00  2.70005823E-01  8.45000000E-02  8.00000000E-01
  3.04752488E+03  4.57369518E+02  1.03948685E+02  2.92101553E+01  9.28666296E+00
  3.16392696E+00  7.86827235E+00  1.88128854E+00  5.44249258E-01  1.68714478E-01
  4.38000000E-02  8.00000000E-01  1.87311370E+01  2.82539436E+00  6.40121692E-01
  1.61277759E-01  3.60000000E-02  1.10000000E+00  1.87311370E+01  2.82539436E+00
  6.40121692E-01  1.61277759E-01  3.60000000E-02  1.10000000E+00  1.87311370E+01
  2.82539436E+00  6.40121692E-01  1.61277759E-01  3.60000000E-02  1.10000000E+00
  1.87311370E+01  2.82539436E+00  6.40121692E-01  1.61277759E-01  3.60000000E-02
  1.10000000E+00  1.87311370E+01  2.82539436E+00  6.40121692E-01  1.61277759E-01
  3.60000000E-02  1.10000000E+00  1.87311370E+01  2.82539436E+00  6.40121692E-01
  1.61277759E-01  3.60000000E-02  1.10000000E+00
Contraction coefficients                   R   N=         108
  1.83473713E-03  1.40373228E-02  6.88426223E-02  2.32184443E-01  4.67941348E-01
  3.62311985E-01 -1.19332420E-01 -1.60854152E-01  1.14345644E+00  1.00000000E+00
  1.00000000E+00  1.00000000E+00  1.83107443E-03  1.39501722E-02  6.84450781E-02
  2.32714336E-01  4.70192898E-01  3.58520853E-01 -1.10777550E-01 -1.48026263E-01
  1.13076702E+00  1.00000000E+00  1.00000000E+00  1.00000000E+00  1.83473713E-03
  1.40373228E-02  6.88426223E-02  2.32184443E-01  4.67941348E-01  3.62311985E-01
 -1.19332420E-01 -1.60854152E-01  1.14345644E+00  1.00000000E+00  1.00000000E+00
  1.00000000E+00  1.83107443E-03  1.39501722E-02  6.84450781E-02  2.32714336E-01
  4.70192898E-01  3.58520853E-01 -1.10777550E-01 -1.48026263E-01  1.13076702E+00
  1.00000000E+00  1.00000000E+00  1.00000000E+00  1.83107443E-03  1.39501722E-02
  6.84450781E-02  2.32714336E-01  4.70192898E-01  3.58520853E-01 -1.10777550E-01
 -1.48026263E-01  1.13076702E+00  1.00000000E+00  1.00000000E+00  1.00000000E+00
  1.83473713E-03  1.40373228E-02  6.88426223E-02  2.32184443E-01  4.67941348E-01
  3.62311985E-01 -1.19332420E-01 -1.60854152E-01  1.14345644E+00  1.00000000E+00
  1.00000000E+00  1.00000000E+00  3.34946043E-02  2.34726953E-01  8.13757326E-01
  1.00000000E+00  1.00000000E+00  1.00000000E+00  3.34946043E-02  2.34726953E-01
  8.13757326E-01  1.00000000E+00  1.00000000E+00  1.00000000E+00  3.34946043E-02
  2.34726953E-01  8.13757326E-01  1.00000000E+00  1.00000000E+00  1.00000000E+00
  3.34946043E-02  2.34726953E-01  8.13757326E-01  1.00000000E+00  1.00000000E+00
  1.00000000E+00  3.34946043E-02  2.34726953E-01  8.13757326E-01  1.00000000E+00
  1.00000000E+00  1.00000000E+00  3.34946043E-02  2.34726953E-01  8.13757326E-01
  1.00000000E+00  1.00000000E+00  1.00000000E+00
P(S=P) Contraction coefficients            R   N=         108
  0.00000000E+00  0.00000000E+00  0.00000000E+00  0.00000000E+00  0.00000000E+00
  0.00000000E+00  6.89990666E-02  3.16423961E-01  7.44308291E-01  1.00000000E+00
  1.00000000E+00  0.00000000E+00  0.00000000E+00  0.00000000E+00  0.00000000E+00
  0.00000000E+00  0.00000000E+00  0.00000000E+00  7.08742682E-02  3.39752839E-01
  7.27158577E-01  1.00000000E+00  1.00000000E+00  0.00000000E+00  0.00000000E+00
  0.00000000E+00  0.00000000E+00  0.00000000E+00  0.00000000E+00  0.00000000E+00
  6.89990666E-02  3.16423961E-01  7.44308291E-01  1.00000000E+00  1.00000000E+00
  0.00000000E+00  0.00000000E+00  0.00000000E+00  0.00000000E+00  0.00000000E+00
  0.00000000E+00  0.00000000E+00  7.08742682E-02  3.39752839E-01  7.27158577E-01
  1.00000000E+00  1.00000000E+00  0.00000000E+00  0.00000000E+00  0.00000000E+00
  0.00000000E+00  0.00000000E+00  0.00000000E+00  0.00000000E+00  7.08742682E-02
  3.39752839E-01  7.27158577E-01  1.00000000E+00  1.00000000E+00  0.00000000E+00
  0.00000000E+00  0.00000000E+00  0.00000000E+00  0.00000000E+00  0.00000000E+00
  0.00000000E+00  6.89990666E-02  3.16423961E-01  7.44308291E-01  1.00000000E+00
  1.00000000E+00  0.00000000E+00  0.00000000E+00  0.00000000E+00  0.00000000E+00
  0.00000000E+00  0.00000000E+00  0.00000000E+00  0.00000000E+00  0.00000000E+00
  0.00000000E+00  0.00000000E+00  0.00000000E+00  0.00000000E+00  0.00000000E+00
  0.00000000E+00  0.00000000E+00  0.00000000E+00  0.00000000E+00  0.00000000E+00
  0.00000000E+00  0.00000000E+00  0.00000000E+00  0.00000000E+00  0.00000000E+00
  0.00000000E+00  0.00000000E+00  0.00000000E+00  0.00000000E+00  0.00000000E+00
  0.00000000E+00  0.00000000E+00  0.00000000E+00  0.00000000E+00  0.00000000E+00
  0.00000000E+00  0.00000000E+00  0.00000000E+00
Coordinates of each shell                  R   N=         162
  4.44962277E+00 -3.69336314E-02  7.58032726E-05  4.44962277E+00 -3.69336314E-02
  7.58032726E-05  4.44962277E+00 -3.69336314E-02  7.58032726E-05  4.44962277E+00
 -3.69336314E-02  7.58032726E-05  4.44962277E+00 -3.69336314E-02  7.58032726E-05
  2.04731230E+00 -1.33859215E+00 -3.03388546E-05  2.04731230E+00 -1.33859215E+00
 -3.03388546E-05  2.04731230E+00 -1.33859215E+00 -3.03388546E-05  2.04731230E+00
 -1.33859215E+00 -3.03388546E-05  2.04731230E+00 -1.33859215E+00 -3.03388546E-05
  1.24091425E-17  1.40497169E-01 -1.41224485E-04  1.24091425E-17  1.40497169E-01
 -1.41224485E-04  1.24091425E-17  1.40497169E-01 -1.41224485E-04  1.24091425E-17
  1.40497169E-01 -1.41224485E-04  1.24091425E-17  1.40497169E-01 -1.41224485E-04
 -2.94763247E-17  2.44296665E+00 -2.32182853E-05 -2.94763247E-17  2.44296665E+00
 -2.32182853E-05 -2.94763247E-17  2.44296665E+00 -2.32182853E-05 -2.94763247E-17
  2.44296665E+00 -2.32182853E-05 -2.94763247E-17  2.44296665E+00 -2.32182853E-05
 -2.04731230E+00 -1.33859215E+00 -3.03928245E-05 -2.04731230E+00 -1.33859215E+00
 -3.03928245E-05 -2.04731230E+00 -1.33859215E+00 -3.03928245E-05 -2.04731230E+00
 -1.33859215E+00 -3.03928245E-05 -2.04731230E+00 -1.33859215E+00 -3.03928245E-05
 -4.44962277E+00 -3.69336284E-02  7.58246673E-05 -4.44962277E+00 -3.69336284E-02
  7.58246673E-05 -4.44962277E+00 -3.69336284E-02  7.58246673E-05 -4.44962277E+00
 -3.69336284E-02  7.58246673E-05 -4.44962277E+00 -3.69336284E-02  7.58246673E-05
  5.86653634E+00 -1.52737113E+00  1.51324500E-04  5.86653634E+00 -1.52737113E+00
  1.51324500E-04  5.86653634E+00 -1.52737113E+00  1.51324500E-04  5.86653634E+00
 -1.52737113E+00  1.51324500E-04  4.62511402E+00  1.13216543E+00 -1.69001339E+00
  4.62511402E+00  1.13216543E+00 -1.69001339E+00  4.62511402E+00  1.13216543E+00
 -1.69001339E+00  4.62511402E+00  1.13216543E+00 -1.69001339E+00  4.62495743E+00
  1.13218658E+00  1.69016660E+00  4.62495743E+00  1.13218658E+00  1.69016660E+00
  4.62495743E+00  1.13218658E+00  1.69016660E+00  4.62495743E+00  1.13218658E+00
  1.69016660E+00 -5.86653634E+00 -1.52737112E+00  1.52619326E-04 -5.86653634E+00
 -1.52737112E+00  1.52619326E-04 -5.86653634E+00 -1.52737112E+00  1.52619326E-04
 -5.86653634E+00 -1.52737112E+00  1.52619326E-04 -4.62511457E+00  1.13216445E+00
 -1.69001399E+00 -4.62511457E+00  1.13216445E+00 -1.69001399E+00 -4.62511457E+00
  1.13216445E+00 -1.69001399E+00 -4.62511457E+00  1.13216445E+00 -1.69001399E+00
 -4.62495691E+00  1.13218751E+00  1.69016602E+00 -4.62495691E+00  1.13218751E+00
  1.69016602E+00 -4.62495691E+00  1.13218751E+00  1.69016602E+00 -4.62495691E+00
  1.13218751E+00  1.69016602E+00
Num ILSW                                   I              100
ILSW                                       I   N=         100
           0           1           0           0           2           0
           0           0           0           0         402          -1
           5           0           0           0           2           0
           0           0           1           0           1           0
           1           0           0           0           0           0
           0           0      100000           0          -1           0
           0           0           0           0           0           0
           0           0           0           1           0           0
           0 -2000000000           1           0           0           0
           0           0         141          52           0           0
           0           0           5           0           0           0
           0           0           0           0           0           1
           0           0           0           0           0           0
           0           0           0           0           0           0
           0           0           0           0           0           0
           0           0           0           0           0           0
           0           0           0           0
Num RLSW                                   I               52
RLSW                                       R   N=          52
  8.00000000E-01  7.20000000E-01  1.00000000E+00  8.10000000E-01  2.00000000E-01
  0.00000000E+00  0.00000000E+00  1.00000000E+00  0.00000000E+00  0.00000000E+00
  0.00000000E+00  0.00000000E+00  1.00000000E+00  0.00000000E+00  0.00000000E+00
  0.00000000E+00  0.00000000E+00  1.00000000E+00  0.00000000E+00  0.00000000E+00
  0.00000000E+00  0.00000000E+00  1.00000000E+00  0.00000000E+00  0.00000000E+00
  0.00000000E+00  0.00000000E+00  1.00000000E+00  0.00000000E+00  0.00000000E+00
  0.00000000E+00  0.00000000E+00  1.00000000E+00  0.00000000E+00  0.00000000E+00
  0.00000000E+00  0.00000000E+00  0.00000000E+00  1.00000000E+00  1.00000000E+00
  0.00000000E+00  1.00000000E+00  0.00000000E+00  0.00000000E+00  0.00000000E+00
  0.00000000E+00  0.00000000E+00  0.00000000E+00  0.00000000E+00  0.00000000E+00
  0.00000000E+00  0.00000000E+00
MxBond                                     I                4
NBond                                      I   N=          12
           4           2           3           1           2           4
           1           1           1           1           1           1
IBond                                      I   N=          48
           2           7           8           9           1           3
           0           0           2           4           5           0
           3           0           0           0           3           6
           0           0           5          10          11          12
           1           0           0           0           1           0
           0           0           1           0           0           0
           6           0           0           0           6           0
           0           0           6           0           0           0
RBond                                      R   N=          48
  1.00000000E+00  1.00000000E+00  1.00000000E+00  1.00000000E+00  1.00000000E+00
  1.50000000E+00  0.00000000E+00  0.00000000E+00  1.50000000E+00  2.00000000E+00
  1.50000000E+00  0.00000000E+00  2.00000000E+00  0.00000000E+00  0.00000000E+00
  0.00000000E+00  1.50000000E+00  1.00000000E+00  0.00000000E+00  0.00000000E+00
  1.00000000E+00  1.00000000E+00  1.00000000E+00  1.00000000E+00  1.00000000E+00
  0.00000000E+00  0.00000000E+00  0.00000000E+00  1.00000000E+00  0.00000000E+00
  0.00000000E+00  0.00000000E+00  1.00000000E+00  0.00000000E+00  0.00000000E+00
  0.00000000E+00  1.00000000E+00  0.00000000E+00  0.00000000E+00  0.00000000E+00
  1.00000000E+00  0.00000000E+00  0.00000000E+00  0.00000000E+00  1.00000000E+00
  0.00000000E+00  0.00000000E+00  0.00000000E+00
Virial Ratio                               R      2.009212552830525E+00
SCF Energy                                 R     -3.436512334923917E+02
Total Energy                               R     -3.436512334923917E+02
RMS Force                                  R      3.962352262803739E-05
RMS Density                                R      2.624215053765259E-09
NImag                                      I                0
Job Status                                 I                1
Nuclear derivative order                   I                2
PCM-NSphere                                I               12
PCM-NGenSphere                             I               12
PCM-NOrd                                   I   N=          12
           1           2           3           4           5           6
           7           8           9          10          11          12
PCM-SphereRadii                            R   N=          12
  4.00253442E+00  3.63772279E+00  4.00253442E+00  3.63772279E+00  3.63772279E+00
  4.00253442E+00  2.99956228E+00  2.99956228E+00  2.99956228E+00  2.99956228E+00
  2.99956228E+00  2.99956228E+00
PCM-SphereLoc                              R   N=          36
  4.44962277E+00 -3.69336314E-02  7.58032726E-05  2.04731230E+00 -1.33859215E+00
 -3.03388546E-05  1.93480364E-17  1.40497169E-01 -1.41224485E-04 -2.94763247E-17
  2.44296665E+00 -2.32182853E-05 -2.04731230E+00 -1.33859215E+00 -3.03928245E-05
 -4.44962277E+00 -3.69336284E-02  7.58246673E-05  5.86653634E+00 -1.52737113E+00
  1.51324500E-04  4.62511402E+00  1.13216543E+00 -1.69001339E+00  4.62495743E+00
  1.13218658E+00  1.69016660E+00 -5.86653634E+00 -1.52737112E+00  1.52619326E-04
 -4.62511457E+00  1.13216445E+00 -1.69001399E+00 -4.62495691E+00  1.13218751E+00
  1.69016602E+00
External E-field                           R   N=          35
  0.00000000E+00  0.00000000E+00  0.00000000E+00  0.00000000E+00  0.00000000E+00
  0.00000000E+00  0.00000000E+00  0.00000000E+00  0.00000000E+00  0.00000000E+00
  0.00000000E+00  0.00000000E+00  0.00000000E+00  0.00000000E+00  0.00000000E+00
  0.00000000E+00  0.00000000E+00  0.00000000E+00  0.00000000E+00  0.00000000E+00
  0.00000000E+00  0.00000000E+00  0.00000000E+00  0.00000000E+00  0.00000000E+00
  0.00000000E+00  0.00000000E+00  0.00000000E+00  0.00000000E+00  0.00000000E+00
  0.00000000E+00  0.00000000E+00  0.00000000E+00  0.00000000E+00  0.00000000E+00
IOpCl                                      I                0
IROHF                                      I                0
Alpha Orbital Energies                     R   N=         150
 -1.92178113E+01 -1.92178076E+01 -1.91609999E+01 -1.03789392E+01 -1.02491366E+01
 -1.02491342E+01 -1.15925825E+00 -1.07127845E+00 -1.03657457E+00 -7.68813586E-01
 -7.05577013E-01 -5.89050739E-01 -5.57073213E-01 -5.19602435E-01 -5.08436354E-01
 -4.66890780E-01 -4.56107790E-01 -4.43822738E-01 -4.11140533E-01 -3.88218959E-01
 -3.73098801E-01 -3.27515165E-01 -3.20476360E-01 -3.09661352E-01 -7.23076011E-03
  9.23777981E-03  1.65433402E-02  2.16020520E-02  2.97318750E-02  3.22960658E-02
  4.19659499E-02  5.13136140E-02  6.81991758E-02  8.68519027E-02  9.28906704E-02
  1.13780929E-01  1.15517270E-01  1.17119616E-01  1.27539211E-01  1.28863041E-01
  1.40392361E-01  1.41378537E-01  1.47910959E-01  1.68310374E-01  1.70343687E-01
  1.88753445E-01  1.99522574E-01  2.09671661E-01  2.22612669E-01  2.34781080E-01
  2.48784971E-01  2.50922240E-01  2.52112777E-01  2.70830667E-01  2.89777556E-01
  2.89903935E-01  3.09295836E-01  3.22840006E-01  3.28640904E-01  3.49350827E-01
  3.49991637E-01  3.77740020E-01  3.83904430E-01  4.10519436E-01  4.64041559E-01
  5.23528343E-01  6.90717399E-01  7.01091922E-01  7.06456627E-01  7.15933081E-01
  7.23397983E-01  7.29392114E-01  7.49970956E-01  7.81659826E-01  8.48891481E-01