EMC_B3LYP_6-31ppgd,p_pcm_Acetone                                        
Freq      RB3LYP                                                      6-31++G(d,p)        
Number of atoms                            I               15
Info1-9                                    I   N=           9
          24          24        1002           0           0         100
           6          18        -502
Full Title                                 C   N=           3
EMC_B3LYP_6-31ppgd,p_pcm_Acetone    
Route                                      C   N=           6
# opt freq B3LYP/6-31++g(d,p) em=gd3bj scrf=(pcm,solvent=Ace
tone)       
Charge                                     I                0
Multiplicity                               I                1
Number of electrons                        I               56
Number of alpha electrons                  I               28
Number of beta electrons                   I               28
Number of basis functions                  I              181
Number of independent functions            I              181
Number of point charges in /Mol/           I                0
Number of translation vectors              I                0
Atomic numbers                             I   N=          15
           6           6           8           6           8           8
           6           1           1           1           1           1
           1           1           1
Nuclear charges                            R   N=          15
  6.00000000E+00  6.00000000E+00  8.00000000E+00  6.00000000E+00  8.00000000E+00
  8.00000000E+00  6.00000000E+00  1.00000000E+00  1.00000000E+00  1.00000000E+00
  1.00000000E+00  1.00000000E+00  1.00000000E+00  1.00000000E+00  1.00000000E+00
Current cartesian coordinates              R   N=          45
  4.83203173E+00  5.94946572E-01  1.34692409E+00  3.57973670E+00 -5.28274577E-01
 -9.76111539E-01  1.11184734E+00 -1.58795684E+00 -3.60128111E-01 -8.32342240E-01
  2.12024344E-02 -3.15901744E-01 -7.55576248E-01  2.26776902E+00 -8.15802931E-01
 -2.90322890E+00 -1.26138419E+00  3.64210459E-01 -5.20703802E+00  1.99080991E-01
  4.96092908E-01  6.72658124E+00  1.25922742E+00  8.46666859E-01  5.01402340E+00
 -8.22480315E-01  2.84068598E+00  3.75320719E+00  2.20115963E+00  2.07081060E+00
  4.63371358E+00 -2.14210215E+00 -1.70568524E+00  3.33833791E+00  8.68153782E-01
 -2.47482049E+00 -5.65250330E+00  9.96340715E-01 -1.35333456E+00 -5.01422536E+00
  1.70922808E+00  1.88769070E+00 -6.65780119E+00 -1.13868366E+00  1.07572851E+00
Number of symbols in /Mol/                 I                0
Force Field                                I                0
Atom Types                                 C   N=          15
                                                            
                                                            
                                                            
Int Atom Types                             I   N=          15
           0           0           0           0           0           0
           0           0           0           0           0           0
           0           0           0
MM charges                                 R   N=          15
  0.00000000E+00  0.00000000E+00  0.00000000E+00  0.00000000E+00  0.00000000E+00
  0.00000000E+00  0.00000000E+00  0.00000000E+00  0.00000000E+00  0.00000000E+00
  0.00000000E+00  0.00000000E+00  0.00000000E+00  0.00000000E+00  0.00000000E+00
Integer atomic weights                     I   N=          15
          12          12          16          12          16          16
          12           1           1           1           1           1
           1           1           1
Real atomic weights                        R   N=          15
  1.20000000E+01  1.20000000E+01  1.59949146E+01  1.20000000E+01  1.59949146E+01
  1.59949146E+01  1.20000000E+01  1.00782504E+00  1.00782504E+00  1.00782504E+00
  1.00782504E+00  1.00782504E+00  1.00782504E+00  1.00782504E+00  1.00782504E+00
Atom fragment info                         I   N=          15
           0           0           0           0           0           0
           0           0           0           0           0           0
           0           0           0
Atom residue num                           I   N=          15
           0           0           0           0           0           0
           0           0           0           0           0           0
           0           0           0
Nuclear spins                              I   N=          15
           0           0           0           0           0           0
           0           1           1           1           1           1
           1           1           1
Nuclear ZEff                               R   N=          15
 -3.60000000E+00 -3.60000000E+00 -5.60000000E+00 -3.60000000E+00 -5.60000000E+00
 -5.60000000E+00 -3.60000000E+00 -1.00000000E+00 -1.00000000E+00 -1.00000000E+00
 -1.00000000E+00 -1.00000000E+00 -1.00000000E+00 -1.00000000E+00 -1.00000000E+00
Nuclear ZNuc                               R   N=          15
  6.00000000E+00  6.00000000E+00  8.00000000E+00  6.00000000E+00  8.00000000E+00
  8.00000000E+00  6.00000000E+00  1.00000000E+00  1.00000000E+00  1.00000000E+00
  1.00000000E+00  1.00000000E+00  1.00000000E+00  1.00000000E+00  1.00000000E+00
Nuclear QMom                               R   N=          15
  0.00000000E+00  0.00000000E+00  0.00000000E+00  0.00000000E+00  0.00000000E+00
  0.00000000E+00  0.00000000E+00  0.00000000E+00  0.00000000E+00  0.00000000E+00
  0.00000000E+00  0.00000000E+00  0.00000000E+00  0.00000000E+00  0.00000000E+00
Nuclear GFac                               R   N=          15
  0.00000000E+00  0.00000000E+00  0.00000000E+00  0.00000000E+00  0.00000000E+00
  0.00000000E+00  0.00000000E+00  2.79284600E+00  2.79284600E+00  2.79284600E+00
  2.79284600E+00  2.79284600E+00  2.79284600E+00  2.79284600E+00  2.79284600E+00
MicOpt                                     I   N=          15
          -1          -1          -1          -1          -1          -1
          -1          -1          -1          -1          -1          -1
          -1          -1          -1
Number of residues                         I                0
Number of secondary structures             I                0
Redundant internal dimensions              I   N=           4
          56          14          23          19
Redundant internal coordinate indices      I   N=         224
           1           2           0           0           1           8
           0           0           1           9           0           0
           1          10           0           0           2           3
           0           0           2          11           0           0
           2          12           0           0           3           4
           0           0           4           5           0           0
           4           6           0           0           6           7
           0           0           7          13           0           0
           7          14           0           0           7          15
           0           0           2           1           8           0
           2           1           9           0           2           1
          10           0           8           1           9           0
           8           1          10           0           9           1
          10           0           1           2           3           0
           1           2          11           0           1           2
          12           0           3           2          11           0
           3           2          12           0          11           2
          12           0           2           3           4           0
           3           4           5           0           3           4
           6           0           5           4           6           0
           4           6           7           0           6           7
          13           0           6           7          14           0
           6           7          15           0          13           7
          14           0          13           7          15           0
          14           7          15           0           8           1
           2           3           8           1           2          11
           8           1           2          12           9           1
           2           3           9           1           2          11
           9           1           2          12          10           1
           2           3          10           1           2          11
          10           1           2          12           1           2
           3           4          11           2           3           4
          12           2           3           4           2           3
           4           5           2           3           4           6
           3           4           6           7           5           4
           6           7           4           6           7          13
           4           6           7          14           4           6
           7          15
Redundant internal coordinates             R   N=          56
  2.86816372E+00  2.06902010E+00  2.06725532E+00  2.06586409E+00  2.75551084E+00
  2.06096688E+00  2.06262310E+00  2.52412810E+00  2.30279301E+00  2.52906161E+00
  2.73091340E+00  2.06263045E+00  2.06258705E+00  2.05677064E+00  1.90678550E+00
  1.93389262E+00  1.93936360E+00  1.89044676E+00  1.88943688E+00  1.90273553E+00
  1.93969622E+00  1.94989284E+00  1.95462447E+00  1.80906400E+00  1.89438331E+00
  1.91003583E+00  2.03598803E+00  2.20491111E+00  1.88820621E+00  2.19005496E+00
  2.01811204E+00  1.92367667E+00  1.92332706E+00  1.83466348E+00  1.91998626E+00
  1.93024278E+00  1.93051560E+00  3.07689080E+00  1.06559662E+00 -1.08420869E+00
  9.95440558E-01 -1.01585362E+00  3.11752638E+00 -1.12272336E+00 -3.13401753E+00
  9.99362465E-01  1.46345705E+00 -2.72278240E+00 -6.93438204E-01  4.25198755E-02
 -3.10433837E+00 -3.13581461E+00  5.68785752E-04  1.06517195E+00 -1.05715398E+00
 -3.13765507E+00
ZRed-IntVec                                I   N=          56
           0           0           0           0           0           0
           0           0           0           0           0           0
           0           0           0           0           0           0
           0           0           0           0           0           0
           0           0           0           0           0           0
           0           0           0           0           0           0
           0           0           0           0           0           0
           0           0           0           0           0           0
           0           0           0           0           0           0
           0           0
ZRed-FPVec                                 R   N=          56
  0.00000000E+00  0.00000000E+00  0.00000000E+00  0.00000000E+00  0.00000000E+00
  0.00000000E+00  0.00000000E+00  0.00000000E+00  0.00000000E+00  0.00000000E+00
  0.00000000E+00  0.00000000E+00  0.00000000E+00  0.00000000E+00  0.00000000E+00
  0.00000000E+00  0.00000000E+00  0.00000000E+00  0.00000000E+00  0.00000000E+00
  0.00000000E+00  0.00000000E+00  0.00000000E+00  0.00000000E+00  0.00000000E+00
  0.00000000E+00  0.00000000E+00  0.00000000E+00  0.00000000E+00  0.00000000E+00
  0.00000000E+00  0.00000000E+00  0.00000000E+00  0.00000000E+00  0.00000000E+00
  0.00000000E+00  0.00000000E+00  0.00000000E+00  0.00000000E+00  0.00000000E+00
  0.00000000E+00  0.00000000E+00  0.00000000E+00  0.00000000E+00  0.00000000E+00
  0.00000000E+00  0.00000000E+00  0.00000000E+00  0.00000000E+00  0.00000000E+00
  0.00000000E+00  0.00000000E+00  0.00000000E+00  0.00000000E+00  0.00000000E+00
  0.00000000E+00
ZRed-Constraint1                           R   N=          56
  2.86816372E+00  2.06902010E+00  2.06725532E+00  2.06586409E+00  2.75551084E+00
  2.06096688E+00  2.06262310E+00  2.52412810E+00  2.30279301E+00  2.52906161E+00
  2.73091340E+00  2.06263045E+00  2.06258705E+00  2.05677064E+00  1.90678550E+00
  1.93389262E+00  1.93936360E+00  1.89044676E+00  1.88943688E+00  1.90273553E+00
  1.93969622E+00  1.94989284E+00  1.95462447E+00  1.80906400E+00  1.89438331E+00
  1.91003583E+00  2.03598803E+00  2.20491111E+00  1.88820621E+00  2.19005496E+00
  2.01811204E+00  1.92367667E+00  1.92332706E+00  1.83466348E+00  1.91998626E+00
  1.93024278E+00  1.93051560E+00  3.07689080E+00  1.06559662E+00 -1.08420869E+00
  9.95440558E-01 -1.01585362E+00  3.11752638E+00 -1.12272336E+00 -3.13401753E+00
  9.99362465E-01  1.46345705E+00 -2.72278240E+00 -6.93438204E-01  4.25198755E-02
 -3.10433837E+00 -3.13581461E+00  5.68785752E-04  1.06517195E+00 -1.05715398E+00
 -3.13765507E+00
ZRed-Constraint2                           R   N=          56
  2.86730229E+00  2.06670227E+00  2.06917511E+00  2.06845058E+00  2.70763049E+00
  2.06923703E+00  2.07147474E+00  2.56278115E+00  2.30846150E+00  2.56361895E+00
  2.69428366E+00  2.06853008E+00  2.06853810E+00  2.06655124E+00  1.93324268E+00
  1.92955874E+00  1.93810053E+00  1.89943412E+00  1.89567822E+00  1.86601598E+00
  1.92406022E+00  1.91255622E+00  1.94498014E+00  1.86765423E+00  1.94444705E+00
  1.86748354E+00  2.01914059E+00  2.20085185E+00  1.88684796E+00  2.19548311E+00
  1.98693885E+00  1.92994180E+00  1.92991429E+00  1.88641141E+00  1.93293478E+00
  1.89160228E+00  1.89158842E+00  3.08331707E+00  1.03219132E+00 -1.03135594E+00
  9.76351418E-01 -1.07477433E+00 -3.13832159E+00 -1.09193871E+00  3.14012085E+00
  1.07657359E+00  1.51408797E+00 -2.69040945E+00 -6.54731475E-01 -7.27594426E-03
  3.13655832E+00  3.13937781E+00  1.80585721E-05  1.07383185E+00 -1.07351851E+00
 -3.14141966E+00
SymInf integers                            I   N=          26
           1           1           1           1           1           0
           0           0           0           0           0           0
           0           0           0           0           0           0
           0           0           0           0           0           0
           0           0
RotTr to input orientation                 R   N=          12
 -9.95443192E-01  5.17808113E-02 -8.00724657E-02 -8.35283613E-02 -6.84319279E-02
  9.94152948E-01  4.59985330E-02  9.96311105E-01  7.24452630E-02  4.01675684E-01
 -2.02985983E-01 -2.80591156E-01
Number of contracted shells                I               67
Number of primitive shells                 I              132
Pure/Cartesian d shells                    I                1
Pure/Cartesian f shells                    I                0
Highest angular momentum                   I                2
Largest degree of contraction              I                6
Shell types                                I   N=          67
           0          -1          -1          -1           2           0
          -1          -1          -1           2           0          -1
          -1          -1           2           0          -1          -1
          -1           2           0          -1          -1          -1
           2           0          -1          -1          -1           2
           0          -1          -1          -1           2           0
           0           0           1           0           0           0
           1           0           0           0           1           0
           0           0           1           0           0           0
           1           0           0           0           1           0
           0           0           1           0           0           0
           1
Number of primitives per shell             I   N=          67
           6           3           1           1           1           6
           3           1           1           1           6           3
           1           1           1           6           3           1
           1           1           6           3           1           1
           1           6           3           1           1           1
           6           3           1           1           1           3
           1           1           1           3           1           1
           1           3           1           1           1           3
           1           1           1           3           1           1
           1           3           1           1           1           3
           1           1           1           3           1           1
           1
Shell to atom map                          I   N=          67
           1           1           1           1           1           2
           2           2           2           2           3           3
           3           3           3           4           4           4
           4           4           5           5           5           5
           5           6           6           6           6           6
           7           7           7           7           7           8
           8           8           8           9           9           9
           9          10          10          10          10          11
          11          11          11          12          12          12
          12          13          13          13          13          14
          14          14          14          15          15          15
          15
Primitive exponents                        R   N=         132
  3.04752488E+03  4.57369518E+02  1.03948685E+02  2.92101553E+01  9.28666296E+00
  3.16392696E+00  7.86827235E+00  1.88128854E+00  5.44249258E-01  1.68714478E-01
  4.38000000E-02  8.00000000E-01  3.04752488E+03  4.57369518E+02  1.03948685E+02
  2.92101553E+01  9.28666296E+00  3.16392696E+00  7.86827235E+00  1.88128854E+00
  5.44249258E-01  1.68714478E-01  4.38000000E-02  8.00000000E-01  5.48467166E+03
  8.25234946E+02  1.88046958E+02  5.29645000E+01  1.68975704E+01  5.79963534E+00
  1.55396162E+01  3.59993359E+00  1.01376175E+00  2.70005823E-01  8.45000000E-02
  8.00000000E-01  3.04752488E+03  4.57369518E+02  1.03948685E+02  2.92101553E+01
  9.28666296E+00  3.16392696E+00  7.86827235E+00  1.88128854E+00  5.44249258E-01
  1.68714478E-01  4.38000000E-02  8.00000000E-01  5.48467166E+03  8.25234946E+02
  1.88046958E+02  5.29645000E+01  1.68975704E+01  5.79963534E+00  1.55396162E+01
  3.59993359E+00  1.01376175E+00  2.70005823E-01  8.45000000E-02  8.00000000E-01
  5.48467166E+03  8.25234946E+02  1.88046958E+02  5.29645000E+01  1.68975704E+01
  5.79963534E+00  1.55396162E+01  3.59993359E+00  1.01376175E+00  2.70005823E-01
  8.45000000E-02  8.00000000E-01  3.04752488E+03  4.57369518E+02  1.03948685E+02
  2.92101553E+01  9.28666296E+00  3.16392696E+00  7.86827235E+00  1.88128854E+00
  5.44249258E-01  1.68714478E-01  4.38000000E-02  8.00000000E-01  1.87311370E+01
  2.82539436E+00  6.40121692E-01  1.61277759E-01  3.60000000E-02  1.10000000E+00
  1.87311370E+01  2.82539436E+00  6.40121692E-01  1.61277759E-01  3.60000000E-02
  1.10000000E+00  1.87311370E+01  2.82539436E+00  6.40121692E-01  1.61277759E-01
  3.60000000E-02  1.10000000E+00  1.87311370E+01  2.82539436E+00  6.40121692E-01
  1.61277759E-01  3.60000000E-02  1.10000000E+00  1.87311370E+01  2.82539436E+00
  6.40121692E-01  1.61277759E-01  3.60000000E-02  1.10000000E+00  1.87311370E+01
  2.82539436E+00  6.40121692E-01  1.61277759E-01  3.60000000E-02  1.10000000E+00
  1.87311370E+01  2.82539436E+00  6.40121692E-01  1.61277759E-01  3.60000000E-02
  1.10000000E+00  1.87311370E+01  2.82539436E+00  6.40121692E-01  1.61277759E-01
  3.60000000E-02  1.10000000E+00
Contraction coefficients                   R   N=         132
  1.83473713E-03  1.40373228E-02  6.88426223E-02  2.32184443E-01  4.67941348E-01
  3.62311985E-01 -1.19332420E-01 -1.60854152E-01  1.14345644E+00  1.00000000E+00
  1.00000000E+00  1.00000000E+00  1.83473713E-03  1.40373228E-02  6.88426223E-02
  2.32184443E-01  4.67941348E-01  3.62311985E-01 -1.19332420E-01 -1.60854152E-01
  1.14345644E+00  1.00000000E+00  1.00000000E+00  1.00000000E+00  1.83107443E-03
  1.39501722E-02  6.84450781E-02  2.32714336E-01  4.70192898E-01  3.58520853E-01
 -1.10777550E-01 -1.48026263E-01  1.13076702E+00  1.00000000E+00  1.00000000E+00
  1.00000000E+00  1.83473713E-03  1.40373228E-02  6.88426223E-02  2.32184443E-01
  4.67941348E-01  3.62311985E-01 -1.19332420E-01 -1.60854152E-01  1.14345644E+00
  1.00000000E+00  1.00000000E+00  1.00000000E+00  1.83107443E-03  1.39501722E-02
  6.84450781E-02  2.32714336E-01  4.70192898E-01  3.58520853E-01 -1.10777550E-01
 -1.48026263E-01  1.13076702E+00  1.00000000E+00  1.00000000E+00  1.00000000E+00
  1.83107443E-03  1.39501722E-02  6.84450781E-02  2.32714336E-01  4.70192898E-01
  3.58520853E-01 -1.10777550E-01 -1.48026263E-01  1.13076702E+00  1.00000000E+00
  1.00000000E+00  1.00000000E+00  1.83473713E-03  1.40373228E-02  6.88426223E-02
  2.32184443E-01  4.67941348E-01  3.62311985E-01 -1.19332420E-01 -1.60854152E-01
  1.14345644E+00  1.00000000E+00  1.00000000E+00  1.00000000E+00  3.34946043E-02
  2.34726953E-01  8.13757326E-01  1.00000000E+00  1.00000000E+00  1.00000000E+00
  3.34946043E-02  2.34726953E-01  8.13757326E-01  1.00000000E+00  1.00000000E+00
  1.00000000E+00  3.34946043E-02  2.34726953E-01  8.13757326E-01  1.00000000E+00
  1.00000000E+00  1.00000000E+00  3.34946043E-02  2.34726953E-01  8.13757326E-01
  1.00000000E+00  1.00000000E+00  1.00000000E+00  3.34946043E-02  2.34726953E-01
  8.13757326E-01  1.00000000E+00  1.00000000E+00  1.00000000E+00  3.34946043E-02
  2.34726953E-01  8.13757326E-01  1.00000000E+00  1.00000000E+00  1.00000000E+00
  3.34946043E-02  2.34726953E-01  8.13757326E-01  1.00000000E+00  1.00000000E+00
  1.00000000E+00  3.34946043E-02  2.34726953E-01  8.13757326E-01  1.00000000E+00
  1.00000000E+00  1.00000000E+00
P(S=P) Contraction coefficients            R   N=         132
  0.00000000E+00  0.00000000E+00  0.00000000E+00  0.00000000E+00  0.00000000E+00
  0.00000000E+00  6.89990666E-02  3.16423961E-01  7.44308291E-01  1.00000000E+00
  1.00000000E+00  0.00000000E+00  0.00000000E+00  0.00000000E+00  0.00000000E+00
  0.00000000E+00  0.00000000E+00  0.00000000E+00  6.89990666E-02  3.16423961E-01
  7.44308291E-01  1.00000000E+00  1.00000000E+00  0.00000000E+00  0.00000000E+00
  0.00000000E+00  0.00000000E+00  0.00000000E+00  0.00000000E+00  0.00000000E+00
  7.08742682E-02  3.39752839E-01  7.27158577E-01  1.00000000E+00  1.00000000E+00
  0.00000000E+00  0.00000000E+00  0.00000000E+00  0.00000000E+00  0.00000000E+00
  0.00000000E+00  0.00000000E+00  6.89990666E-02  3.16423961E-01  7.44308291E-01
  1.00000000E+00  1.00000000E+00  0.00000000E+00  0.00000000E+00  0.00000000E+00
  0.00000000E+00  0.00000000E+00  0.00000000E+00  0.00000000E+00  7.08742682E-02
  3.39752839E-01  7.27158577E-01  1.00000000E+00  1.00000000E+00  0.00000000E+00
  0.00000000E+00  0.00000000E+00  0.00000000E+00  0.00000000E+00  0.00000000E+00
  0.00000000E+00  7.08742682E-02  3.39752839E-01  7.27158577E-01  1.00000000E+00
  1.00000000E+00  0.00000000E+00  0.00000000E+00  0.00000000E+00  0.00000000E+00
  0.00000000E+00  0.00000000E+00  0.00000000E+00  6.89990666E-02  3.16423961E-01
  7.44308291E-01  1.00000000E+00  1.00000000E+00  0.00000000E+00  0.00000000E+00
  0.00000000E+00  0.00000000E+00  0.00000000E+00  0.00000000E+00  0.00000000E+00
  0.00000000E+00  0.00000000E+00  0.00000000E+00  0.00000000E+00  0.00000000E+00
  0.00000000E+00  0.00000000E+00  0.00000000E+00  0.00000000E+00  0.00000000E+00
  0.00000000E+00  0.00000000E+00  0.00000000E+00  0.00000000E+00  0.00000000E+00
  0.00000000E+00  0.00000000E+00  0.00000000E+00  0.00000000E+00  0.00000000E+00
  0.00000000E+00  0.00000000E+00  0.00000000E+00  0.00000000E+00  0.00000000E+00
  0.00000000E+00  0.00000000E+00  0.00000000E+00  0.00000000E+00  0.00000000E+00
  0.00000000E+00  0.00000000E+00  0.00000000E+00  0.00000000E+00  0.00000000E+00
  0.00000000E+00  0.00000000E+00  0.00000000E+00  0.00000000E+00  0.00000000E+00
  0.00000000E+00  0.00000000E+00
Coordinates of each shell                  R   N=         201
  4.83203173E+00  5.94946572E-01  1.34692409E+00  4.83203173E+00  5.94946572E-01
  1.34692409E+00  4.83203173E+00  5.94946572E-01  1.34692409E+00  4.83203173E+00
  5.94946572E-01  1.34692409E+00  4.83203173E+00  5.94946572E-01  1.34692409E+00
  3.57973670E+00 -5.28274577E-01 -9.76111539E-01  3.57973670E+00 -5.28274577E-01
 -9.76111539E-01  3.57973670E+00 -5.28274577E-01 -9.76111539E-01  3.57973670E+00
 -5.28274577E-01 -9.76111539E-01  3.57973670E+00 -5.28274577E-01 -9.76111539E-01
  1.11184734E+00 -1.58795684E+00 -3.60128111E-01  1.11184734E+00 -1.58795684E+00
 -3.60128111E-01  1.11184734E+00 -1.58795684E+00 -3.60128111E-01  1.11184734E+00
 -1.58795684E+00 -3.60128111E-01  1.11184734E+00 -1.58795684E+00 -3.60128111E-01
 -8.32342240E-01  2.12024344E-02 -3.15901744E-01 -8.32342240E-01  2.12024344E-02
 -3.15901744E-01 -8.32342240E-01  2.12024344E-02 -3.15901744E-01 -8.32342240E-01
  2.12024344E-02 -3.15901744E-01 -8.32342240E-01  2.12024344E-02 -3.15901744E-01
 -7.55576248E-01  2.26776902E+00 -8.15802931E-01 -7.55576248E-01  2.26776902E+00
 -8.15802931E-01 -7.55576248E-01  2.26776902E+00 -8.15802931E-01 -7.55576248E-01
  2.26776902E+00 -8.15802931E-01 -7.55576248E-01  2.26776902E+00 -8.15802931E-01
 -2.90322890E+00 -1.26138419E+00  3.64210459E-01 -2.90322890E+00 -1.26138419E+00
  3.64210459E-01 -2.90322890E+00 -1.26138419E+00  3.64210459E-01 -2.90322890E+00
 -1.26138419E+00  3.64210459E-01 -2.90322890E+00 -1.26138419E+00  3.64210459E-01
 -5.20703802E+00  1.99080991E-01  4.96092908E-01 -5.20703802E+00  1.99080991E-01
  4.96092908E-01 -5.20703802E+00  1.99080991E-01  4.96092908E-01 -5.20703802E+00
  1.99080991E-01  4.96092908E-01 -5.20703802E+00  1.99080991E-01  4.96092908E-01
  6.72658124E+00  1.25922742E+00  8.46666859E-01  6.72658124E+00  1.25922742E+00
  8.46666859E-01  6.72658124E+00  1.25922742E+00  8.46666859E-01  6.72658124E+00
  1.25922742E+00  8.46666859E-01  5.01402340E+00 -8.22480315E-01  2.84068598E+00
  5.01402340E+00 -8.22480315E-01  2.84068598E+00  5.01402340E+00 -8.22480315E-01
  2.84068598E+00  5.01402340E+00 -8.22480315E-01  2.84068598E+00  3.75320719E+00
  2.20115963E+00  2.07081060E+00  3.75320719E+00  2.20115963E+00  2.07081060E+00
  3.75320719E+00  2.20115963E+00  2.07081060E+00  3.75320719E+00  2.20115963E+00
  2.07081060E+00  4.63371358E+00 -2.14210215E+00 -1.70568524E+00  4.63371358E+00
 -2.14210215E+00 -1.70568524E+00  4.63371358E+00 -2.14210215E+00 -1.70568524E+00
  4.63371358E+00 -2.14210215E+00 -1.70568524E+00  3.33833791E+00  8.68153782E-01
 -2.47482049E+00  3.33833791E+00  8.68153782E-01 -2.47482049E+00  3.33833791E+00
  8.68153782E-01 -2.47482049E+00  3.33833791E+00  8.68153782E-01 -2.47482049E+00
 -5.65250330E+00  9.96340715E-01 -1.35333456E+00 -5.65250330E+00  9.96340715E-01
 -1.35333456E+00 -5.65250330E+00  9.96340715E-01 -1.35333456E+00 -5.65250330E+00
  9.96340715E-01 -1.35333456E+00 -5.01422536E+00  1.70922808E+00  1.88769070E+00
 -5.01422536E+00  1.70922808E+00  1.88769070E+00 -5.01422536E+00  1.70922808E+00
  1.88769070E+00 -5.01422536E+00  1.70922808E+00  1.88769070E+00 -6.65780119E+00
 -1.13868366E+00  1.07572851E+00 -6.65780119E+00 -1.13868366E+00  1.07572851E+00
 -6.65780119E+00 -1.13868366E+00  1.07572851E+00 -6.65780119E+00 -1.13868366E+00
  1.07572851E+00
Num ILSW                                   I              100
ILSW                                       I   N=         100
           0           1           0           0           2           0
           0           0           0           0         402          -1
           5           0           0           0           2           0
           0           0           1           0           1           0
           1           0           0           0           0           0
           0           0      100000           0          -1           0
           0           0           0           0           0           0
           0           0           0           1           0           0
           0 -2000000000           1           0           0           0
           0           0         141          52           0           0
           0           0           5           0           0           0
           0           0           0           0           0           1
           0           0           0           0           0           0
           0           0           0           0           0           0
           0           0           0           0           0           0
           0           0           0           0           0           0
           0           0           0           0
Num RLSW                                   I               52
RLSW                                       R   N=          52
  8.00000000E-01  7.20000000E-01  1.00000000E+00  8.10000000E-01  2.00000000E-01
  0.00000000E+00  0.00000000E+00  1.00000000E+00  0.00000000E+00  0.00000000E+00
  0.00000000E+00  0.00000000E+00  1.00000000E+00  0.00000000E+00  0.00000000E+00
  0.00000000E+00  0.00000000E+00  1.00000000E+00  0.00000000E+00  0.00000000E+00
  0.00000000E+00  0.00000000E+00  1.00000000E+00  0.00000000E+00  0.00000000E+00
  0.00000000E+00  0.00000000E+00  1.00000000E+00  0.00000000E+00  0.00000000E+00
  0.00000000E+00  0.00000000E+00  1.00000000E+00  0.00000000E+00  0.00000000E+00
  0.00000000E+00  0.00000000E+00  0.00000000E+00  1.00000000E+00  1.00000000E+00
  0.00000000E+00  1.00000000E+00  0.00000000E+00  0.00000000E+00  0.00000000E+00
  0.00000000E+00  0.00000000E+00  0.00000000E+00  0.00000000E+00  0.00000000E+00
  0.00000000E+00  0.00000000E+00
MxBond                                     I                4
NBond                                      I   N=          15
           4           4           2           3           1           2
           4           1           1           1           1           1