DMC_B3LYP_6-31ppgd,p_pcm_Water                                          
Freq      RB3LYP                                                      6-31++G(d,p)        
Number of atoms                            I               12
Info1-9                                    I   N=           9
          21          21        1002           0           0         100
           6          18        -502
Full Title                                 C   N=           3
DMC_B3LYP_6-31ppgd,p_pcm_Water      
Route                                      C   N=           6
# opt freq B3LYP/6-31++g(d,p) em=gd3bj scrf=(pcm,solvent=Wat
er)         
Charge                                     I                0
Multiplicity                               I                1
Number of electrons                        I               48
Number of alpha electrons                  I               24
Number of beta electrons                   I               24
Number of basis functions                  I              150
Number of independent functions            I              150
Number of point charges in /Mol/           I                0
Number of translation vectors              I                0
Atomic numbers                             I   N=          12
           6           8           6           8           8           6
           1           1           1           1           1           1
Nuclear charges                            R   N=          12
  6.00000000E+00  8.00000000E+00  6.00000000E+00  8.00000000E+00  8.00000000E+00
  6.00000000E+00  1.00000000E+00  1.00000000E+00  1.00000000E+00  1.00000000E+00
  1.00000000E+00  1.00000000E+00
Current cartesian coordinates              R   N=          36
  4.44962276E+00 -3.69337310E-02  1.65763444E-05  2.04731233E+00 -1.33859208E+00
 -6.69102088E-06 -6.41947850E-18  1.40497288E-01 -3.08629499E-05 -1.44808122E-16
  2.44296667E+00 -5.06020293E-06 -2.04731232E+00 -1.33859208E+00 -6.53382720E-06
 -4.44962276E+00 -3.69337367E-02  1.65038590E-05  5.86653637E+00 -1.52737123E+00
  3.24213126E-05  4.62505276E+00  1.13217410E+00 -1.69007290E+00  4.62501899E+00
  1.13217762E+00  1.69010712E+00 -4.62502120E+00  1.13217359E+00  1.69010964E+00
 -4.62505056E+00  1.13217814E+00 -1.69007037E+00 -5.86653637E+00 -1.52737124E+00
  2.70607285E-05
Number of symbols in /Mol/                 I                0
Force Field                                I                0
Atom Types                                 C   N=          12
                                                            
                                                            
                        
Int Atom Types                             I   N=          12
           0           0           0           0           0           0
           0           0           0           0           0           0
MM charges                                 R   N=          12
  0.00000000E+00  0.00000000E+00  0.00000000E+00  0.00000000E+00  0.00000000E+00
  0.00000000E+00  0.00000000E+00  0.00000000E+00  0.00000000E+00  0.00000000E+00
  0.00000000E+00  0.00000000E+00
Integer atomic weights                     I   N=          12
          12          16          12          16          16          12
           1           1           1           1           1           1
Real atomic weights                        R   N=          12
  1.20000000E+01  1.59949146E+01  1.20000000E+01  1.59949146E+01  1.59949146E+01
  1.20000000E+01  1.00782504E+00  1.00782504E+00  1.00782504E+00  1.00782504E+00
  1.00782504E+00  1.00782504E+00
Atom fragment info                         I   N=          12
           0           0           0           0           0           0
           0           0           0           0           0           0
Atom residue num                           I   N=          12
           0           0           0           0           0           0
           0           0           0           0           0           0
Nuclear spins                              I   N=          12
           0           0           0           0           0           0
           1           1           1           1           1           1
Nuclear ZEff                               R   N=          12
 -3.60000000E+00 -5.60000000E+00 -3.60000000E+00 -5.60000000E+00 -5.60000000E+00
 -3.60000000E+00 -1.00000000E+00 -1.00000000E+00 -1.00000000E+00 -1.00000000E+00
 -1.00000000E+00 -1.00000000E+00
Nuclear ZNuc                               R   N=          12
  6.00000000E+00  8.00000000E+00  6.00000000E+00  8.00000000E+00  8.00000000E+00
  6.00000000E+00  1.00000000E+00  1.00000000E+00  1.00000000E+00  1.00000000E+00
  1.00000000E+00  1.00000000E+00
Nuclear QMom                               R   N=          12
  0.00000000E+00  0.00000000E+00  0.00000000E+00  0.00000000E+00  0.00000000E+00
  0.00000000E+00  0.00000000E+00  0.00000000E+00  0.00000000E+00  0.00000000E+00
  0.00000000E+00  0.00000000E+00
Nuclear GFac                               R   N=          12
  0.00000000E+00  0.00000000E+00  0.00000000E+00  0.00000000E+00  0.00000000E+00
  0.00000000E+00  2.79284600E+00  2.79284600E+00  2.79284600E+00  2.79284600E+00
  2.79284600E+00  2.79284600E+00
MicOpt                                     I   N=          12
          -1          -1          -1          -1          -1          -1
          -1          -1          -1          -1          -1          -1
Number of residues                         I                0
Number of secondary structures             I                0
Redundant internal dimensions              I   N=           4
          38          11          17          10
Redundant internal coordinate indices      I   N=         152
           1           2           0           0           1           7
           0           0           1           8           0           0
           1           9           0           0           2           3
           0           0           3           4           0           0
           3           5           0           0           5           6
           0           0           6          10           0           0
           6          11           0           0           6          12
           0           0           2           1           7           0
           2           1           8           0           2           1
           9           0           7           1           8           0
           7           1           9           0           8           1
           9           0           1           2           3           0
           2           3           4           0           2           3
           5           0           4           3           5           0
           3           5           6           0           5           6
          10           0           5           6          11           0
           5           6          12           0          10           6
          11           0          10           6          12           0
          11           6          12           0           7           1
           2           3           8           1           2           3
           9           1           2           3           1           2
           3           4           1           2           3           5
           2           3           5           6           4           3
           5           6           3           5           6          10
           3           5           6          11           3           5
           6          12
Redundant internal coordinates             R   N=          38
  2.73229022E+00  2.05646496E+00  2.06252060E+00  2.06252061E+00  2.52570646E+00
  2.30246938E+00  2.52570646E+00  2.73229022E+00  2.06252063E+00  2.06252058E+00
  2.05646495E+00  1.83435723E+00  1.92283893E+00  1.92283933E+00  1.93073792E+00
  1.93073780E+00  1.92082960E+00  2.01940149E+00  2.19643380E+00  1.89031771E+00
  2.19643380E+00  2.01940150E+00  1.92283926E+00  1.92283900E+00  1.83435723E+00
  1.92082959E+00  1.93073775E+00  1.93073798E+00 -3.14159181E+00 -1.06125413E+00
  1.06125574E+00 -1.58950554E-05 -3.14157450E+00  3.14157466E+00  1.60632721E-05
 -1.06125858E+00  1.06125126E+00  3.14158906E+00
ZRed-IntVec                                I   N=          38
           0           0           0           0           0           0
           0           0           0           0           0           0
           0           0           0           0           0           0
           0           0           0           0           0           0
           0           0           0           0           0           0
           0           0           0           0           0           0
           0           0
ZRed-FPVec                                 R   N=          38
  0.00000000E+00  0.00000000E+00  0.00000000E+00  0.00000000E+00  0.00000000E+00
  0.00000000E+00  0.00000000E+00  0.00000000E+00  0.00000000E+00  0.00000000E+00
  0.00000000E+00  0.00000000E+00  0.00000000E+00  0.00000000E+00  0.00000000E+00
  0.00000000E+00  0.00000000E+00  0.00000000E+00  0.00000000E+00  0.00000000E+00
  0.00000000E+00  0.00000000E+00  0.00000000E+00  0.00000000E+00  0.00000000E+00
  0.00000000E+00  0.00000000E+00  0.00000000E+00  0.00000000E+00  0.00000000E+00
  0.00000000E+00  0.00000000E+00  0.00000000E+00  0.00000000E+00  0.00000000E+00
  0.00000000E+00  0.00000000E+00  0.00000000E+00
ZRed-Constraint1                           R   N=          38
  2.73229022E+00  2.05646496E+00  2.06252060E+00  2.06252061E+00  2.52570646E+00
  2.30246938E+00  2.52570646E+00  2.73229022E+00  2.06252063E+00  2.06252058E+00
  2.05646495E+00  1.83435723E+00  1.92283893E+00  1.92283933E+00  1.93073792E+00
  1.93073780E+00  1.92082960E+00  2.01940149E+00  2.19643380E+00  1.89031771E+00
  2.19643380E+00  2.01940150E+00  1.92283926E+00  1.92283900E+00  1.83435723E+00
  1.92082959E+00  1.93073775E+00  1.93073798E+00 -3.14159181E+00 -1.06125413E+00
  1.06125574E+00 -1.58950485E-05 -3.14157450E+00  3.14157466E+00  1.60632790E-05
 -1.06125858E+00  1.06125126E+00  3.14158906E+00
ZRed-Constraint2                           R   N=          38
  2.69429604E+00  2.06655452E+00  2.06853423E+00  2.06853591E+00  2.56323629E+00
  2.30890617E+00  2.56323752E+00  2.69429654E+00  2.06853498E+00  2.06853554E+00
  2.06655477E+00  1.88643224E+00  1.92992554E+00  1.92992496E+00  1.89161502E+00
  1.89161513E+00  1.93288296E+00  1.98679130E+00  2.19733597E+00  1.88851259E+00
  2.19733676E+00  1.98679057E+00  1.92992519E+00  1.92992520E+00  1.88643169E+00
  1.93288451E+00  1.89161561E+00  1.89161357E+00 -3.14159053E+00 -1.07363804E+00
  1.07364250E+00  2.82368158E-06 -3.14158964E+00 -3.14158953E+00  3.31328919E-06
 -1.07364985E+00  1.07363258E+00  3.14158279E+00
SymInf integers                            I   N=          26
           1           1           1           1           1           0
           0           0           0           0           0           0
           0           0           0           0           0           0
           0           0           0           0           0           0
           0           0
RotTr to input orientation                 R   N=          12
 -9.94739200E-01  7.92132848E-02 -6.49552118E-02  2.63812918E-02  8.10785442E-01
  5.84748660E-01  9.89846022E-02  5.79958811E-01 -8.08609811E-01 -2.87294842E-03
 -8.82713545E-02 -4.32513825E-01
Number of contracted shells                I               54
Number of primitive shells                 I              108
Pure/Cartesian d shells                    I                1
Pure/Cartesian f shells                    I                0
Highest angular momentum                   I                2
Largest degree of contraction              I                6
Shell types                                I   N=          54
           0          -1          -1          -1           2           0
          -1          -1          -1           2           0          -1
          -1          -1           2           0          -1          -1
          -1           2           0          -1          -1          -1
           2           0          -1          -1          -1           2
           0           0           0           1           0           0
           0           1           0           0           0           1
           0           0           0           1           0           0
           0           1           0           0           0           1
Number of primitives per shell             I   N=          54
           6           3           1           1           1           6
           3           1           1           1           6           3
           1           1           1           6           3           1
           1           1           6           3           1           1
           1           6           3           1           1           1
           3           1           1           1           3           1
           1           1           3           1           1           1
           3           1           1           1           3           1
           1           1           3           1           1           1
Shell to atom map                          I   N=          54
           1           1           1           1           1           2
           2           2           2           2           3           3
           3           3           3           4           4           4
           4           4           5           5           5           5
           5           6           6           6           6           6
           7           7           7           7           8           8
           8           8           9           9           9           9
          10          10          10          10          11          11
          11          11          12          12          12          12
Primitive exponents                        R   N=         108
  3.04752488E+03  4.57369518E+02  1.03948685E+02  2.92101553E+01  9.28666296E+00
  3.16392696E+00  7.86827235E+00  1.88128854E+00  5.44249258E-01  1.68714478E-01
  4.38000000E-02  8.00000000E-01  5.48467166E+03  8.25234946E+02  1.88046958E+02
  5.29645000E+01  1.68975704E+01  5.79963534E+00  1.55396162E+01  3.59993359E+00
  1.01376175E+00  2.70005823E-01  8.45000000E-02  8.00000000E-01  3.04752488E+03
  4.57369518E+02  1.03948685E+02  2.92101553E+01  9.28666296E+00  3.16392696E+00
  7.86827235E+00  1.88128854E+00  5.44249258E-01  1.68714478E-01  4.38000000E-02
  8.00000000E-01  5.48467166E+03  8.25234946E+02  1.88046958E+02  5.29645000E+01
  1.68975704E+01  5.79963534E+00  1.55396162E+01  3.59993359E+00  1.01376175E+00
  2.70005823E-01  8.45000000E-02  8.00000000E-01  5.48467166E+03  8.25234946E+02
  1.88046958E+02  5.29645000E+01  1.68975704E+01  5.79963534E+00  1.55396162E+01
  3.59993359E+00  1.01376175E+00  2.70005823E-01  8.45000000E-02  8.00000000E-01
  3.04752488E+03  4.57369518E+02  1.03948685E+02  2.92101553E+01  9.28666296E+00
  3.16392696E+00  7.86827235E+00  1.88128854E+00  5.44249258E-01  1.68714478E-01
  4.38000000E-02  8.00000000E-01  1.87311370E+01  2.82539436E+00  6.40121692E-01
  1.61277759E-01  3.60000000E-02  1.10000000E+00  1.87311370E+01  2.82539436E+00
  6.40121692E-01  1.61277759E-01  3.60000000E-02  1.10000000E+00  1.87311370E+01
  2.82539436E+00  6.40121692E-01  1.61277759E-01  3.60000000E-02  1.10000000E+00
  1.87311370E+01  2.82539436E+00  6.40121692E-01  1.61277759E-01  3.60000000E-02
  1.10000000E+00  1.87311370E+01  2.82539436E+00  6.40121692E-01  1.61277759E-01
  3.60000000E-02  1.10000000E+00  1.87311370E+01  2.82539436E+00  6.40121692E-01
  1.61277759E-01  3.60000000E-02  1.10000000E+00
Contraction coefficients                   R   N=         108
  1.83473713E-03  1.40373228E-02  6.88426223E-02  2.32184443E-01  4.67941348E-01
  3.62311985E-01 -1.19332420E-01 -1.60854152E-01  1.14345644E+00  1.00000000E+00
  1.00000000E+00  1.00000000E+00  1.83107443E-03  1.39501722E-02  6.84450781E-02
  2.32714336E-01  4.70192898E-01  3.58520853E-01 -1.10777550E-01 -1.48026263E-01
  1.13076702E+00  1.00000000E+00  1.00000000E+00  1.00000000E+00  1.83473713E-03
  1.40373228E-02  6.88426223E-02  2.32184443E-01  4.67941348E-01  3.62311985E-01
 -1.19332420E-01 -1.60854152E-01  1.14345644E+00  1.00000000E+00  1.00000000E+00
  1.00000000E+00  1.83107443E-03  1.39501722E-02  6.84450781E-02  2.32714336E-01
  4.70192898E-01  3.58520853E-01 -1.10777550E-01 -1.48026263E-01  1.13076702E+00
  1.00000000E+00  1.00000000E+00  1.00000000E+00  1.83107443E-03  1.39501722E-02
  6.84450781E-02  2.32714336E-01  4.70192898E-01  3.58520853E-01 -1.10777550E-01
 -1.48026263E-01  1.13076702E+00  1.00000000E+00  1.00000000E+00  1.00000000E+00
  1.83473713E-03  1.40373228E-02  6.88426223E-02  2.32184443E-01  4.67941348E-01
  3.62311985E-01 -1.19332420E-01 -1.60854152E-01  1.14345644E+00  1.00000000E+00
  1.00000000E+00  1.00000000E+00  3.34946043E-02  2.34726953E-01  8.13757326E-01
  1.00000000E+00  1.00000000E+00  1.00000000E+00  3.34946043E-02  2.34726953E-01
  8.13757326E-01  1.00000000E+00  1.00000000E+00  1.00000000E+00  3.34946043E-02
  2.34726953E-01  8.13757326E-01  1.00000000E+00  1.00000000E+00  1.00000000E+00
  3.34946043E-02  2.34726953E-01  8.13757326E-01  1.00000000E+00  1.00000000E+00
  1.00000000E+00  3.34946043E-02  2.34726953E-01  8.13757326E-01  1.00000000E+00
  1.00000000E+00  1.00000000E+00  3.34946043E-02  2.34726953E-01  8.13757326E-01
  1.00000000E+00  1.00000000E+00  1.00000000E+00
P(S=P) Contraction coefficients            R   N=         108
  0.00000000E+00  0.00000000E+00  0.00000000E+00  0.00000000E+00  0.00000000E+00
  0.00000000E+00  6.89990666E-02  3.16423961E-01  7.44308291E-01  1.00000000E+00
  1.00000000E+00  0.00000000E+00  0.00000000E+00  0.00000000E+00  0.00000000E+00
  0.00000000E+00  0.00000000E+00  0.00000000E+00  7.08742682E-02  3.39752839E-01
  7.27158577E-01  1.00000000E+00  1.00000000E+00  0.00000000E+00  0.00000000E+00
  0.00000000E+00  0.00000000E+00  0.00000000E+00  0.00000000E+00  0.00000000E+00
  6.89990666E-02  3.16423961E-01  7.44308291E-01  1.00000000E+00  1.00000000E+00
  0.00000000E+00  0.00000000E+00  0.00000000E+00  0.00000000E+00  0.00000000E+00
  0.00000000E+00  0.00000000E+00  7.08742682E-02  3.39752839E-01  7.27158577E-01
  1.00000000E+00  1.00000000E+00  0.00000000E+00  0.00000000E+00  0.00000000E+00
  0.00000000E+00  0.00000000E+00  0.00000000E+00  0.00000000E+00  7.08742682E-02
  3.39752839E-01  7.27158577E-01  1.00000000E+00  1.00000000E+00  0.00000000E+00
  0.00000000E+00  0.00000000E+00  0.00000000E+00  0.00000000E+00  0.00000000E+00
  0.00000000E+00  6.89990666E-02  3.16423961E-01  7.44308291E-01  1.00000000E+00
  1.00000000E+00  0.00000000E+00  0.00000000E+00  0.00000000E+00  0.00000000E+00
  0.00000000E+00  0.00000000E+00  0.00000000E+00  0.00000000E+00  0.00000000E+00
  0.00000000E+00  0.00000000E+00  0.00000000E+00  0.00000000E+00  0.00000000E+00
  0.00000000E+00  0.00000000E+00  0.00000000E+00  0.00000000E+00  0.00000000E+00
  0.00000000E+00  0.00000000E+00  0.00000000E+00  0.00000000E+00  0.00000000E+00
  0.00000000E+00  0.00000000E+00  0.00000000E+00  0.00000000E+00  0.00000000E+00
  0.00000000E+00  0.00000000E+00  0.00000000E+00  0.00000000E+00  0.00000000E+00
  0.00000000E+00  0.00000000E+00  0.00000000E+00
Coordinates of each shell                  R   N=         162
  4.44962276E+00 -3.69337310E-02  1.65763444E-05  4.44962276E+00 -3.69337310E-02
  1.65763444E-05  4.44962276E+00 -3.69337310E-02  1.65763444E-05  4.44962276E+00
 -3.69337310E-02  1.65763444E-05  4.44962276E+00 -3.69337310E-02  1.65763444E-05
  2.04731233E+00 -1.33859208E+00 -6.69102088E-06  2.04731233E+00 -1.33859208E+00
 -6.69102088E-06  2.04731233E+00 -1.33859208E+00 -6.69102088E-06  2.04731233E+00
 -1.33859208E+00 -6.69102088E-06  2.04731233E+00 -1.33859208E+00 -6.69102088E-06
 -3.81739329E-18  1.40497288E-01 -3.08629499E-05 -3.81739329E-18  1.40497288E-01
 -3.08629499E-05 -3.81739329E-18  1.40497288E-01 -3.08629499E-05 -3.81739329E-18
  1.40497288E-01 -3.08629499E-05 -3.81739329E-18  1.40497288E-01 -3.08629499E-05
 -7.48740161E-17  2.44296667E+00 -5.06020293E-06 -7.48740161E-17  2.44296667E+00
 -5.06020293E-06 -7.48740161E-17  2.44296667E+00 -5.06020293E-06 -7.48740161E-17
  2.44296667E+00 -5.06020293E-06 -7.48740161E-17  2.44296667E+00 -5.06020293E-06
 -2.04731232E+00 -1.33859208E+00 -6.53382720E-06 -2.04731232E+00 -1.33859208E+00
 -6.53382720E-06 -2.04731232E+00 -1.33859208E+00 -6.53382720E-06 -2.04731232E+00
 -1.33859208E+00 -6.53382720E-06 -2.04731232E+00 -1.33859208E+00 -6.53382720E-06
 -4.44962276E+00 -3.69337367E-02  1.65038590E-05 -4.44962276E+00 -3.69337367E-02
  1.65038590E-05 -4.44962276E+00 -3.69337367E-02  1.65038590E-05 -4.44962276E+00
 -3.69337367E-02  1.65038590E-05 -4.44962276E+00 -3.69337367E-02  1.65038590E-05
  5.86653637E+00 -1.52737123E+00  3.24213126E-05  5.86653637E+00 -1.52737123E+00
  3.24213126E-05  5.86653637E+00 -1.52737123E+00  3.24213126E-05  5.86653637E+00
 -1.52737123E+00  3.24213126E-05  4.62505276E+00  1.13217410E+00 -1.69007290E+00
  4.62505276E+00  1.13217410E+00 -1.69007290E+00  4.62505276E+00  1.13217410E+00
 -1.69007290E+00  4.62505276E+00  1.13217410E+00 -1.69007290E+00  4.62501899E+00
  1.13217762E+00  1.69010712E+00  4.62501899E+00  1.13217762E+00  1.69010712E+00
  4.62501899E+00  1.13217762E+00  1.69010712E+00  4.62501899E+00  1.13217762E+00
  1.69010712E+00 -4.62502120E+00  1.13217359E+00  1.69010964E+00 -4.62502120E+00
  1.13217359E+00  1.69010964E+00 -4.62502120E+00  1.13217359E+00  1.69010964E+00
 -4.62502120E+00  1.13217359E+00  1.69010964E+00 -4.62505056E+00  1.13217814E+00
 -1.69007037E+00 -4.62505056E+00  1.13217814E+00 -1.69007037E+00 -4.62505056E+00
  1.13217814E+00 -1.69007037E+00 -4.62505056E+00  1.13217814E+00 -1.69007037E+00
 -5.86653637E+00 -1.52737124E+00  2.70607285E-05 -5.86653637E+00 -1.52737124E+00
  2.70607285E-05 -5.86653637E+00 -1.52737124E+00  2.70607285E-05 -5.86653637E+00
 -1.52737124E+00  2.70607285E-05
Num ILSW                                   I              100
ILSW                                       I   N=         100
           0           1           0           0           2           0
           0           0           0           0         402          -1
           5           0           0           0           2           0
           0           0           1           0           1           0
           1           0           0           0           0           0
           0           0      100000           0          -1           0
           0           0           0           0           0           0
           0           0           0           1           0           0
           0 -2000000000           1           0           0           0
           0           0         141          52           0           0
           0           0           5           0           0           0
           0           0           0           0           0           1
           0           0           0           0           0           0
           0           0           0           0           0           0
           0           0           0           0           0           0
           0           0           0           0           0           0
           0           0           0           0
Num RLSW                                   I               52
RLSW                                       R   N=          52
  8.00000000E-01  7.20000000E-01  1.00000000E+00  8.10000000E-01  2.00000000E-01
  0.00000000E+00  0.00000000E+00  1.00000000E+00  0.00000000E+00  0.00000000E+00
  0.00000000E+00  0.00000000E+00  1.00000000E+00  0.00000000E+00  0.00000000E+00
  0.00000000E+00  0.00000000E+00  1.00000000E+00  0.00000000E+00  0.00000000E+00
  0.00000000E+00  0.00000000E+00  1.00000000E+00  0.00000000E+00  0.00000000E+00
  0.00000000E+00  0.00000000E+00  1.00000000E+00  0.00000000E+00  0.00000000E+00
  0.00000000E+00  0.00000000E+00  1.00000000E+00  0.00000000E+00  0.00000000E+00
  0.00000000E+00  0.00000000E+00  0.00000000E+00  1.00000000E+00  1.00000000E+00
  0.00000000E+00  1.00000000E+00  0.00000000E+00  0.00000000E+00  0.00000000E+00
  0.00000000E+00  0.00000000E+00  0.00000000E+00  0.00000000E+00  0.00000000E+00
  0.00000000E+00  0.00000000E+00
MxBond                                     I                4
NBond                                      I   N=          12
           4           2           3           1           2           4
           1           1           1           1           1           1
IBond                                      I   N=          48
           2           7           8           9           1           3
           0           0           2           4           5           0
           3           0           0           0           3           6
           0           0           5          10          11          12
           1           0           0           0           1           0
           0           0           1           0           0           0
           6           0           0           0           6           0
           0           0           6           0           0           0
RBond                                      R   N=          48
  1.00000000E+00  1.00000000E+00  1.00000000E+00  1.00000000E+00  1.00000000E+00
  1.50000000E+00  0.00000000E+00  0.00000000E+00  1.50000000E+00  2.00000000E+00
  1.50000000E+00  0.00000000E+00  2.00000000E+00  0.00000000E+00  0.00000000E+00
  0.00000000E+00  1.50000000E+00  1.00000000E+00  0.00000000E+00  0.00000000E+00
  1.00000000E+00  1.00000000E+00  1.00000000E+00  1.00000000E+00  1.00000000E+00
  0.00000000E+00  0.00000000E+00  0.00000000E+00  1.00000000E+00  0.00000000E+00
  0.00000000E+00  0.00000000E+00  1.00000000E+00  0.00000000E+00  0.00000000E+00
  0.00000000E+00  1.00000000E+00  0.00000000E+00  0.00000000E+00  0.00000000E+00
  1.00000000E+00  0.00000000E+00  0.00000000E+00  0.00000000E+00  1.00000000E+00
  0.00000000E+00  0.00000000E+00  0.00000000E+00
Virial Ratio                               R      2.009212552294911E+00
SCF Energy                                 R     -3.436512334937826E+02
Total Energy                               R     -3.436512334937826E+02
RMS Force                                  R      3.934924416789434E-05
RMS Density                                R      2.621513956645159E-09
NImag                                      I                0
Job Status                                 I                1
Nuclear derivative order                   I                2
PCM-NSphere                                I               12
PCM-NGenSphere                             I               12
PCM-NOrd                                   I   N=          12
           1           2           3           4           5           6
           7           8           9          10          11          12
PCM-SphereRadii                            R   N=          12
  4.00253442E+00  3.63772279E+00  4.00253442E+00  3.63772279E+00  3.63772279E+00
  4.00253442E+00  2.99956228E+00  2.99956228E+00  2.99956228E+00  2.99956228E+00
  2.99956228E+00  2.99956228E+00
PCM-SphereLoc                              R   N=          36
  4.44962276E+00 -3.69337310E-02  1.65763444E-05  2.04731233E+00 -1.33859208E+00
 -6.69102088E-06 -6.41947850E-18  1.40497288E-01 -3.08629499E-05 -1.44808122E-16
  2.44296667E+00 -5.06020293E-06 -2.04731232E+00 -1.33859208E+00 -6.53382720E-06
 -4.44962276E+00 -3.69337367E-02  1.65038590E-05  5.86653637E+00 -1.52737123E+00
  3.24213126E-05  4.62505276E+00  1.13217410E+00 -1.69007290E+00  4.62501899E+00
  1.13217762E+00  1.69010712E+00 -4.62502120E+00  1.13217359E+00  1.69010964E+00
 -4.62505056E+00  1.13217814E+00 -1.69007037E+00 -5.86653637E+00 -1.52737124E+00
  2.70607285E-05
External E-field                           R   N=          35
  0.00000000E+00  0.00000000E+00  0.00000000E+00  0.00000000E+00  0.00000000E+00
  0.00000000E+00  0.00000000E+00  0.00000000E+00  0.00000000E+00  0.00000000E+00
  0.00000000E+00  0.00000000E+00  0.00000000E+00  0.00000000E+00  0.00000000E+00
  0.00000000E+00  0.00000000E+00  0.00000000E+00  0.00000000E+00  0.00000000E+00
  0.00000000E+00  0.00000000E+00  0.00000000E+00  0.00000000E+00  0.00000000E+00
  0.00000000E+00  0.00000000E+00  0.00000000E+00  0.00000000E+00  0.00000000E+00
  0.00000000E+00  0.00000000E+00  0.00000000E+00  0.00000000E+00  0.00000000E+00
IOpCl                                      I                0
IROHF                                      I                0
Alpha Orbital Energies                     R   N=         150
 -1.92178113E+01 -1.92178076E+01 -1.91609999E+01 -1.03789392E+01 -1.02491366E+01
 -1.02491342E+01 -1.15925826E+00 -1.07127846E+00 -1.03657460E+00 -7.68813591E-01
 -7.05577010E-01 -5.89050742E-01 -5.57073220E-01 -5.19602440E-01 -5.08436360E-01
 -4.66890785E-01 -4.56107795E-01 -4.43822747E-01 -4.11140539E-01 -3.88218950E-01
 -3.73098792E-01 -3.27515172E-01 -3.20476355E-01 -3.09661363E-01 -7.23075863E-03
  9.23777895E-03  1.65433526E-02  2.16020491E-02  2.97318732E-02  3.22960658E-02
  4.19659511E-02  5.13136126E-02  6.81991792E-02  8.68519017E-02  9.28906713E-02
  1.13780928E-01  1.15517272E-01  1.17119623E-01  1.27539211E-01  1.28863049E-01
  1.40392362E-01  1.41378541E-01  1.47910963E-01  1.68310387E-01  1.70343685E-01
  1.88753445E-01  1.99522577E-01  2.09671667E-01  2.22612662E-01  2.34781088E-01
  2.48784983E-01  2.50922263E-01  2.52112757E-01  2.70830666E-01  2.89777557E-01
  2.89903930E-01  3.09295843E-01  3.22840007E-01  3.28640904E-01  3.49350828E-01
  3.49991642E-01  3.77740011E-01  3.83904422E-01  4.10519440E-01  4.64041562E-01
  5.23528382E-01  6.90717406E-01  7.01091930E-01  7.06456628E-01  7.15933092E-01
  7.23397981E-01  7.29392115E-01  7.49970963E-01  7.81659833E-01  8.48891496E-01