乙醇                                                                  
Freq      RB3LYP                                                      6-31G(d)            
Number of atoms                            I                9
Info1-9                                    I   N=           9
          18          18        1002           0           0         100
           6          18        -502
Full Title                                 C   N=           1
乙醇      
Route                                      C   N=           3
# opt freq B3LYP/6-31G(d) em=gd3bj  
Charge                                     I                0
Multiplicity                               I                1
Number of electrons                        I               26
Number of alpha electrons                  I               13
Number of beta electrons                   I               13
Number of basis functions                  I               57
Number of independent functions            I               57
Number of point charges in /Mol/           I                0
Number of translation vectors              I                0
Atomic numbers                             I   N=           9
           6           6           8           1           1           1
           1           1           1
Nuclear charges                            R   N=           9
  6.00000000E+00  6.00000000E+00  8.00000000E+00  1.00000000E+00  1.00000000E+00
  1.00000000E+00  1.00000000E+00  1.00000000E+00  1.00000000E+00
Current cartesian coordinates              R   N=          27
 -2.29541340E+00 -4.52593438E-01 -4.19903248E-02  1.59562829E-01  1.05236588E+00
  8.92611646E-02  2.34281574E+00 -4.91602465E-01 -2.05857881E-01 -2.41450664E+00
 -1.81614114E+00  1.51735588E+00 -3.94242957E+00  7.97641744E-01  9.17305211E-02
 -2.40384042E+00 -1.50107552E+00 -1.82222995E+00  2.43313160E-01  2.13581816E+00
  1.86669098E+00  2.45639854E-01  2.41979583E+00 -1.46081278E+00  2.34440120E+00
 -1.70185403E+00  1.17050336E+00
Number of symbols in /Mol/                 I                0
Force Field                                I                0
Atom Types                                 C   N=           9
                                                            
                                                
Int Atom Types                             I   N=           9
           0           0           0           0           0           0
           0           0           0
MM charges                                 R   N=           9
  0.00000000E+00  0.00000000E+00  0.00000000E+00  0.00000000E+00  0.00000000E+00
  0.00000000E+00  0.00000000E+00  0.00000000E+00  0.00000000E+00
Integer atomic weights                     I   N=           9
          12          12          16           1           1           1
           1           1           1
Real atomic weights                        R   N=           9
  1.20000000E+01  1.20000000E+01  1.59949146E+01  1.00782504E+00  1.00782504E+00
  1.00782504E+00  1.00782504E+00  1.00782504E+00  1.00782504E+00
Atom fragment info                         I   N=           9
           0           0           0           0           0           0
           0           0           0
Atom residue num                           I   N=           9
           0           0           0           0           0           0
           0           0           0
Nuclear spins                              I   N=           9
           0           0           0           1           1           1
           1           1           1
Nuclear ZEff                               R   N=           9
 -3.60000000E+00 -3.60000000E+00 -5.60000000E+00 -1.00000000E+00 -1.00000000E+00
 -1.00000000E+00 -1.00000000E+00 -1.00000000E+00 -1.00000000E+00
Nuclear ZNuc                               R   N=           9
  6.00000000E+00  6.00000000E+00  8.00000000E+00  1.00000000E+00  1.00000000E+00
  1.00000000E+00  1.00000000E+00  1.00000000E+00  1.00000000E+00
Nuclear QMom                               R   N=           9
  0.00000000E+00  0.00000000E+00  0.00000000E+00  0.00000000E+00  0.00000000E+00
  0.00000000E+00  0.00000000E+00  0.00000000E+00  0.00000000E+00
Nuclear GFac                               R   N=           9
  0.00000000E+00  0.00000000E+00  0.00000000E+00  2.79284600E+00  2.79284600E+00
  2.79284600E+00  2.79284600E+00  2.79284600E+00  2.79284600E+00
MicOpt                                     I   N=           9
          -1          -1          -1          -1          -1          -1
          -1          -1          -1
Number of residues                         I                0
Number of secondary structures             I                0
Redundant internal dimensions              I   N=           4
          33           8          13          12
Redundant internal coordinate indices      I   N=         132
           1           2           0           0           1           4
           0           0           1           5           0           0
           1           6           0           0           2           3
           0           0           2           7           0           0
           2           8           0           0           3           9
           0           0           2           1           4           0
           2           1           5           0           2           1
           6           0           4           1           5           0
           4           1           6           0           5           1
           6           0           1           2           3           0
           1           2           7           0           1           2
           8           0           3           2           7           0
           3           2           8           0           7           2
           8           0           2           3           9           0
           4           1           2           3           4           1
           2           7           4           1           2           8
           5           1           2           3           5           1
           2           7           5           1           2           8
           6           1           2           3           6           1
           2           7           6           1           2           8
           1           2           3           9           7           2
           3           9           8           2           3           9
Redundant internal coordinates             R   N=          33
  2.88254017E+00  2.07485087E+00  2.07210799E+00  2.06889444E+00  2.69026518E+00
  2.08330019E+00  2.06881685E+00  1.83277975E+00  1.93667916E+00  1.93799220E+00
  1.92666435E+00  1.87800021E+00  1.88665614E+00  1.89615456E+00  1.96766639E+00
  1.92261896E+00  1.92453706E+00  1.93846272E+00  1.83732042E+00  1.86902664E+00
  1.87265453E+00  1.10549317E+00 -1.07060881E+00 -3.12981170E+00 -3.08983481E+00
  1.01724851E+00 -1.04195437E+00 -9.85783176E-01  3.12130015E+00  1.06209726E+00
 -1.06746546E+00  1.09994404E+00  3.11696033E+00
ZRed-IntVec                                I   N=          33
           0           0           0           0           0           0
           0           0           0           0           0           0
           0           0           0           0           0           0
           0           0           0           0           0           0
           0           0           0           0           0           0
           0           0           0
ZRed-FPVec                                 R   N=          33
  0.00000000E+00  0.00000000E+00  0.00000000E+00  0.00000000E+00  0.00000000E+00
  0.00000000E+00  0.00000000E+00  0.00000000E+00  0.00000000E+00  0.00000000E+00
  0.00000000E+00  0.00000000E+00  0.00000000E+00  0.00000000E+00  0.00000000E+00
  0.00000000E+00  0.00000000E+00  0.00000000E+00  0.00000000E+00  0.00000000E+00
  0.00000000E+00  0.00000000E+00  0.00000000E+00  0.00000000E+00  0.00000000E+00
  0.00000000E+00  0.00000000E+00  0.00000000E+00  0.00000000E+00  0.00000000E+00
  0.00000000E+00  0.00000000E+00  0.00000000E+00
ZRed-Constraint1                           R   N=          33
  2.88254017E+00  2.07485087E+00  2.07210799E+00  2.06889444E+00  2.69026518E+00
  2.08330019E+00  2.06881685E+00  1.83277975E+00  1.93667916E+00  1.93799220E+00
  1.92666435E+00  1.87800021E+00  1.88665614E+00  1.89615456E+00  1.96766639E+00
  1.92261896E+00  1.92453706E+00  1.93846272E+00  1.83732042E+00  1.86902664E+00
  1.87265453E+00  1.10549317E+00 -1.07060881E+00 -3.12981170E+00 -3.08983481E+00
  1.01724851E+00 -1.04195437E+00 -9.85783176E-01  3.12130015E+00  1.06209726E+00
 -1.06746546E+00  1.09994404E+00  3.11696033E+00
ZRed-Constraint2                           R   N=          33
  2.86218663E+00  2.06919504E+00  2.06652774E+00  2.06915224E+00  2.68374707E+00
  2.06775180E+00  2.06710922E+00  1.83760957E+00  1.93209059E+00  1.93536376E+00
  1.93035200E+00  1.89834054E+00  1.86578503E+00  1.90014318E+00  1.91949913E+00
  1.93771639E+00  1.92834105E+00  1.89756298E+00  1.88793200E+00  1.89167752E+00
  1.87701952E+00  1.04925757E+00 -1.05163554E+00  3.13219382E+00 -3.12524141E+00
  1.05705079E+00 -1.04230516E+00 -1.01544595E+00 -3.11633906E+00  1.06749030E+00
 -1.04468730E+00  1.08030296E+00  3.13105564E+00
SymInf integers                            I   N=          26
           1           1           1           1           1           0
           0           0           0           0           0           0
           0           0           0           0           0           0
           0           0           0           0           0           0
           0           0
RotTr to input orientation                 R   N=          12
  9.77019067E-01  4.83959871E-02  2.07585095E-01  1.11153881E-01 -9.46660750E-01
 -3.02453697E-01  1.81875116E-01  3.18576917E-01 -9.30285005E-01  5.91192256E-01
  3.46481501E-02  2.71326923E-01
Number of contracted shells                I               24
Number of primitive shells                 I               57
Pure/Cartesian d shells                    I                1
Pure/Cartesian f shells                    I                0
Highest angular momentum                   I                2
Largest degree of contraction              I                6
Shell types                                I   N=          24
           0          -1          -1           2           0          -1
          -1           2           0          -1          -1           2
           0           0           0           0           0           0
           0           0           0           0           0           0
Number of primitives per shell             I   N=          24
           6           3           1           1           6           3
           1           1           6           3           1           1
           3           1           3           1           3           1
           3           1           3           1           3           1
Shell to atom map                          I   N=          24
           1           1           1           1           2           2
           2           2           3           3           3           3
           4           4           5           5           6           6
           7           7           8           8           9           9
Primitive exponents                        R   N=          57
  3.04752488E+03  4.57369518E+02  1.03948685E+02  2.92101553E+01  9.28666296E+00
  3.16392696E+00  7.86827235E+00  1.88128854E+00  5.44249258E-01  1.68714478E-01
  8.00000000E-01  3.04752488E+03  4.57369518E+02  1.03948685E+02  2.92101553E+01
  9.28666296E+00  3.16392696E+00  7.86827235E+00  1.88128854E+00  5.44249258E-01
  1.68714478E-01  8.00000000E-01  5.48467166E+03  8.25234946E+02  1.88046958E+02
  5.29645000E+01  1.68975704E+01  5.79963534E+00  1.55396162E+01  3.59993359E+00
  1.01376175E+00  2.70005823E-01  8.00000000E-01  1.87311370E+01  2.82539436E+00
  6.40121692E-01  1.61277759E-01  1.87311370E+01  2.82539436E+00  6.40121692E-01
  1.61277759E-01  1.87311370E+01  2.82539436E+00  6.40121692E-01  1.61277759E-01
  1.87311370E+01  2.82539436E+00  6.40121692E-01  1.61277759E-01  1.87311370E+01
  2.82539436E+00  6.40121692E-01  1.61277759E-01  1.87311370E+01  2.82539436E+00
  6.40121692E-01  1.61277759E-01
Contraction coefficients                   R   N=          57
  1.83473713E-03  1.40373228E-02  6.88426223E-02  2.32184443E-01  4.67941348E-01
  3.62311985E-01 -1.19332420E-01 -1.60854152E-01  1.14345644E+00  1.00000000E+00
  1.00000000E+00  1.83473713E-03  1.40373228E-02  6.88426223E-02  2.32184443E-01
  4.67941348E-01  3.62311985E-01 -1.19332420E-01 -1.60854152E-01  1.14345644E+00
  1.00000000E+00  1.00000000E+00  1.83107443E-03  1.39501722E-02  6.84450781E-02
  2.32714336E-01  4.70192898E-01  3.58520853E-01 -1.10777550E-01 -1.48026263E-01
  1.13076702E+00  1.00000000E+00  1.00000000E+00  3.34946043E-02  2.34726953E-01
  8.13757326E-01  1.00000000E+00  3.34946043E-02  2.34726953E-01  8.13757326E-01
  1.00000000E+00  3.34946043E-02  2.34726953E-01  8.13757326E-01  1.00000000E+00
  3.34946043E-02  2.34726953E-01  8.13757326E-01  1.00000000E+00  3.34946043E-02
  2.34726953E-01  8.13757326E-01  1.00000000E+00  3.34946043E-02  2.34726953E-01
  8.13757326E-01  1.00000000E+00
P(S=P) Contraction coefficients            R   N=          57
  0.00000000E+00  0.00000000E+00  0.00000000E+00  0.00000000E+00  0.00000000E+00
  0.00000000E+00  6.89990666E-02  3.16423961E-01  7.44308291E-01  1.00000000E+00
  0.00000000E+00  0.00000000E+00  0.00000000E+00  0.00000000E+00  0.00000000E+00
  0.00000000E+00  0.00000000E+00  6.89990666E-02  3.16423961E-01  7.44308291E-01
  1.00000000E+00  0.00000000E+00  0.00000000E+00  0.00000000E+00  0.00000000E+00
  0.00000000E+00  0.00000000E+00  0.00000000E+00  7.08742682E-02  3.39752839E-01
  7.27158577E-01  1.00000000E+00  0.00000000E+00  0.00000000E+00  0.00000000E+00
  0.00000000E+00  0.00000000E+00  0.00000000E+00  0.00000000E+00  0.00000000E+00
  0.00000000E+00  0.00000000E+00  0.00000000E+00  0.00000000E+00  0.00000000E+00
  0.00000000E+00  0.00000000E+00  0.00000000E+00  0.00000000E+00  0.00000000E+00
  0.00000000E+00  0.00000000E+00  0.00000000E+00  0.00000000E+00  0.00000000E+00
  0.00000000E+00  0.00000000E+00
Coordinates of each shell                  R   N=          72
 -2.29541340E+00 -4.52593438E-01 -4.19903248E-02 -2.29541340E+00 -4.52593438E-01
 -4.19903248E-02 -2.29541340E+00 -4.52593438E-01 -4.19903248E-02 -2.29541340E+00
 -4.52593438E-01 -4.19903248E-02  1.59562829E-01  1.05236588E+00  8.92611646E-02
  1.59562829E-01  1.05236588E+00  8.92611646E-02  1.59562829E-01  1.05236588E+00
  8.92611646E-02  1.59562829E-01  1.05236588E+00  8.92611646E-02  2.34281574E+00
 -4.91602465E-01 -2.05857881E-01  2.34281574E+00 -4.91602465E-01 -2.05857881E-01
  2.34281574E+00 -4.91602465E-01 -2.05857881E-01  2.34281574E+00 -4.91602465E-01
 -2.05857881E-01 -2.41450664E+00 -1.81614114E+00  1.51735588E+00 -2.41450664E+00
 -1.81614114E+00  1.51735588E+00 -3.94242957E+00  7.97641744E-01  9.17305211E-02
 -3.94242957E+00  7.97641744E-01  9.17305211E-02 -2.40384042E+00 -1.50107552E+00
 -1.82222995E+00 -2.40384042E+00 -1.50107552E+00 -1.82222995E+00  2.43313160E-01
  2.13581816E+00  1.86669098E+00  2.43313160E-01  2.13581816E+00  1.86669098E+00
  2.45639854E-01  2.41979583E+00 -1.46081278E+00  2.45639854E-01  2.41979583E+00
 -1.46081278E+00  2.34440120E+00 -1.70185403E+00  1.17050336E+00  2.34440120E+00
 -1.70185403E+00  1.17050336E+00
Num ILSW                                   I              100
ILSW                                       I   N=         100
           0           1           0           0           2           0
           0           0           0           0         402          -1
           5           0           0           0           2           0
           0           0           1           0           1           0
           1           0           0           0           0           0
           0           0      100000           0          -1           0
           0           0           0           0           0           0
           0           0           0           1           0           0
           0 -2000000000           1           0           0           0
           0           0         141          52           0           0
           0           0           5           0           0           0
           0           0           0           0           0           1
           0           0           0           0           0           0
           0           0           0           0           0           0
           0           0           0           0           0           0
           0           0           0           0           0           0
           0           0           0           0
Num RLSW                                   I               52
RLSW                                       R   N=          52
  8.00000000E-01  7.20000000E-01  1.00000000E+00  8.10000000E-01  2.00000000E-01
  0.00000000E+00  0.00000000E+00  1.00000000E+00  0.00000000E+00  0.00000000E+00
  0.00000000E+00  0.00000000E+00  1.00000000E+00  0.00000000E+00  0.00000000E+00
  0.00000000E+00  0.00000000E+00  1.00000000E+00  0.00000000E+00  0.00000000E+00
  0.00000000E+00  0.00000000E+00  1.00000000E+00  0.00000000E+00  0.00000000E+00
  0.00000000E+00  0.00000000E+00  1.00000000E+00  0.00000000E+00  0.00000000E+00
  0.00000000E+00  0.00000000E+00  1.00000000E+00  0.00000000E+00  0.00000000E+00
  0.00000000E+00  0.00000000E+00  0.00000000E+00  1.00000000E+00  1.00000000E+00
  0.00000000E+00  1.00000000E+00  0.00000000E+00  0.00000000E+00  0.00000000E+00
  0.00000000E+00  0.00000000E+00  0.00000000E+00  0.00000000E+00  0.00000000E+00
  0.00000000E+00  0.00000000E+00
MxBond                                     I                4
NBond                                      I   N=           9
           4           4           2           1           1           1
           1           1           1
IBond                                      I   N=          36
           2           4           5           6           1           3
           7           8           2           9           0           0
           1           0           0           0           1           0
           0           0           1           0           0           0
           2           0           0           0           2           0
           0           0           3           0           0           0
RBond                                      R   N=          36
  1.00000000E+00  1.00000000E+00  1.00000000E+00  1.00000000E+00  1.00000000E+00
  1.00000000E+00  1.00000000E+00  1.00000000E+00  1.00000000E+00  1.00000000E+00
  0.00000000E+00  0.00000000E+00  1.00000000E+00  0.00000000E+00  0.00000000E+00
  0.00000000E+00  1.00000000E+00  0.00000000E+00  0.00000000E+00  0.00000000E+00
  1.00000000E+00  0.00000000E+00  0.00000000E+00  0.00000000E+00  1.00000000E+00
  0.00000000E+00  0.00000000E+00  0.00000000E+00  1.00000000E+00  0.00000000E+00
  0.00000000E+00  0.00000000E+00  1.00000000E+00  0.00000000E+00  0.00000000E+00
  0.00000000E+00
Virial Ratio                               R      2.009238883646339E+00
SCF Energy                                 R     -1.550414110648291E+02
Total Energy                               R     -1.550414110648291E+02
RMS Force                                  R      2.458841345735763E-05
RMS Density                                R      8.701583475058053E-10
NImag                                      I                0
Job Status                                 I                1
Nuclear derivative order                   I                2
External E-field                           R   N=          35
  0.00000000E+00  0.00000000E+00  0.00000000E+00  0.00000000E+00  0.00000000E+00
  0.00000000E+00  0.00000000E+00  0.00000000E+00  0.00000000E+00  0.00000000E+00
  0.00000000E+00  0.00000000E+00  0.00000000E+00  0.00000000E+00  0.00000000E+00
  0.00000000E+00  0.00000000E+00  0.00000000E+00  0.00000000E+00  0.00000000E+00
  0.00000000E+00  0.00000000E+00  0.00000000E+00  0.00000000E+00  0.00000000E+00
  0.00000000E+00  0.00000000E+00  0.00000000E+00  0.00000000E+00  0.00000000E+00
  0.00000000E+00  0.00000000E+00  0.00000000E+00  0.00000000E+00  0.00000000E+00
IOpCl                                      I                0
IROHF                                      I                0
Alpha Orbital Energies                     R   N=          57
 -1.91379584E+01 -1.02281082E+01 -1.01778590E+01 -1.00989216E+00 -7.43384827E-01
 -6.20521683E-01 -4.97184871E-01 -4.47636319E-01 -4.26813317E-01 -3.78875245E-01
 -3.67781201E-01 -3.20896186E-01 -2.63001565E-01  7.58204418E-02  1.23368184E-01
  1.45416706E-01  1.56274986E-01  1.67453689E-01  1.90385410E-01  2.21710403E-01
  2.47482714E-01  5.25980598E-01  5.51489104E-01  5.63808603E-01  5.82714474E-01
  6.55639876E-01  6.78731026E-01  8.03071792E-01  8.60897730E-01  8.73709568E-01
  8.92428090E-01  8.98024977E-01  9.47639272E-01  9.84295361E-01  1.02402901E+00
  1.02858611E+00  1.13402405E+00  1.35637869E+00  1.45413840E+00  1.51642787E+00
  1.57147251E+00  1.74420067E+00  1.81296874E+00  1.91184083E+00  1.95573216E+00
  2.08818533E+00  2.14182329E+00  2.20346252E+00  2.28496009E+00  2.36800695E+00
  2.41125561E+00  2.50692308E+00  2.63955143E+00  2.82360740E+00  3.72298879E+00
  4.16659134E+00  4.39261901E+00
Alpha MO coefficients                      R   N=        3249
  1.50454705E-05  1.22481380E-04  2.41932828E-05  7.30349234E-07  1.84834917E-05
 -3.10644641E-04 -9.39794989E-05 -7.49845376E-05 -2.68925383E-04 -4.14666924E-05
 -8.31716312E-06  4.06318611E-05  5.19117899E-06 -1.57316835E-05 -1.76553707E-05
  3.45907098E-06  2.18756154E-04  3.02462001E-04 -1.88524878E-04 -1.08701993E-04
 -1.57796751E-03 -1.03721941E-03  3.35323388E-04  5.80128026E-04  2.08509474E-04
  1.05428066E-04  7.91902005E-06 -1.21857829E-04 -2.45317746E-05  3.59807343E-05
  9.92798005E-01  2.60285667E-02 -6.28855688E-04 -1.64177156E-04  7.98308345E-04
  1.13213821E-02 -2.96200269E-04  3.12091245E-04 -9.62652013E-05 -7.97560264E-03
 -7.93979069E-03 -7.94898768E-03  3.36828650E-05  3.90222107E-05  5.15688783E-06
 -5.51169697E-06  2.49812552E-04  4.35909560E-05 -8.16109329E-05  2.65560624E-05
 -1.31162302E-04  1.62654438E-05 -8.04746212E-05  1.37590404E-04  2.38421872E-04
  4.06384130E-04 -1.09586079E-03  2.05417706E-03 -2.49103696E-04 -1.19724584E-04
 -6.76608568E-05 -1.24757873E-06  4.91735115E-03  2.14194415E-03  1.18668217E-03
  3.38169463E-05 -3.31150594E-04 -2.25361157E-04 -1.46513687E-04 -1.27116751E-04
 -2.41591141E-05 -8.30852027E-06  9.93031501E-01  4.92041157E-02  4.09170045E-04
 -3.68830913E-04 -5.09121705E-05 -1.68281074E-02  1.09713510E-03  6.40982561E-04
  2.52368798E-04 -8.86387507E-03 -8.87968783E-03 -8.83880709E-03 -1.58303567E-04
 -1.81923924E-05 -1.07468731E-05 -1.25799287E-04 -2.69877150E-04  1.09571934E-04
 -1.00946422E-04  1.73040517E-05  2.61080059E-03 -4.02103430E-04  2.46235706E-04
 -1.20219018E-04 -5.56586336E-04 -3.92614255E-04 -9.14782140E-05  3.84925884E-04
  7.78248831E-05 -3.68469425E-05 -1.90530111E-04  6.82631675E-05 -1.56836508E-04
  4.46475345E-05 -2.14021489E-04  6.61021024E-05 -2.71449532E-05  2.68284468E-03
  2.80028086E-06  2.85366688E-03  4.29163286E-06  3.96561401E-04  9.92890441E-01
  5.00226358E-02 -3.25536745E-05 -2.00087497E-05  4.88942193E-05 -1.68450166E-02
 -7.53130406E-04 -3.99970897E-04 -7.19740188E-05 -9.22470687E-03 -9.18259694E-03
 -9.15653467E-03 -6.43966878E-05 -3.45168393E-06 -2.23001956E-06 -2.30988766E-03
 -3.56706162E-04  9.38191639E-05  1.19298980E-04  8.56650152E-06  4.26927786E-03
 -1.82010139E-03 -1.05509391E-03 -1.01316053E-04 -3.38487686E-04 -2.12636069E-04
 -9.42578623E-05 -1.32053343E-04 -1.94590894E-05 -1.05113636E-05 -3.98490098E-05
 -1.88890886E-04  6.66195766E-05  5.24814421E-06 -1.31091487E-05  4.68831115E-04
 -1.05033803E-04 -2.41056190E-05  9.16194418E-05 -5.00583412E-05 -9.24110194E-05
 -2.06357018E-04  3.07566132E-05 -1.01739327E-05 -1.06754285E-05 -6.25030225E-05
  2.75725296E-03 -7.16569410E-05  2.68593620E-03 -4.86392324E-05  2.72208212E-03
 -1.53872063E-04  4.42589463E-05 -1.58554491E-04  3.69363479E-05 -9.42302599E-05
 -5.99496972E-05 -1.65391552E-02  2.98735328E-02  2.17824324E-02  5.22559422E-03
  7.42908044E-04  1.77644701E-02  6.99002994E-03  3.50481317E-05 -2.04159260E-03
  4.16009523E-03 -2.88060974E-05 -5.98123984E-04  2.25548418E-03  1.51711170E-04
 -7.27554561E-05 -7.56993802E-02  1.43099080E-01  7.95206692E-02 -6.26193288E-02
 -6.83979329E-03  5.67423891E-02 -2.39555825E-04 -4.18414653E-04  6.94846308E-03
  8.46712393E-03  2.28848985E-03 -7.07764696E-03 -1.56795673E-02 -1.64723579E-03
  6.18094084E-04 -2.01321694E-01  4.47323338E-01 -8.03527650E-02 -7.76383573E-03
  8.34993236E-02  4.28544923E-01 -3.96022505E-02 -3.63970072E-03  4.02409739E-02
  2.48948268E-03  4.31055447E-03  6.46116983E-03 -7.35525462E-03 -5.54482709E-03
 -1.28353231E-02  6.43743208E-03  5.01903161E-03  4.71317364E-03  1.35178597E-04
  6.62996217E-03  8.01539115E-04  2.52031341E-02 -3.19069097E-04  2.64336227E-02
  6.35267901E-03  1.29558881E-01  6.39437709E-04 -1.60135581E-01  3.06266370E-01
  3.56447180E-02  3.02789677E-02  4.04147675E-03  2.64255433E-01 -1.06618015E-03
  4.50328001E-03  3.65662391E-04  1.21054230E-03  7.10607209E-04 -7.56816186E-04
  1.84678567E-03  7.28788559E-05  2.77194795E-05 -1.21047549E-01  2.39305552E-01
 -1.03529765E-01 -4.29051664E-03 -5.15873369E-03  1.97975705E-01 -3.00779252E-02
  4.43107111E-03  5.13627834E-03 -2.20863257E-03 -2.79503459E-03 -1.74847476E-04
  1.18359033E-02  7.70422198E-05 -2.44301132E-04  5.55652491E-02 -1.26988111E-01
 -5.71235458E-02  6.65331435E-02 -4.37732233E-02 -1.51254699E-01 -2.69261197E-02
  3.27170306E-02 -2.17691800E-02  9.11592823E-03 -1.49753731E-03 -5.43014377E-03
 -3.84312566E-03 -1.68644851E-03  7.58894717E-03  9.51097384E-02  2.15797248E-02
  9.86366464E-02  2.00015002E-02  9.37012498E-02  1.85109288E-02  7.28873321E-02
  1.23113476E-02  7.62292939E-02  1.73385895E-02 -6.91956796E-02 -1.31221458E-02
  1.10478126E-01 -2.16064914E-01  9.28947646E-02  7.30974148E-02 -2.88884494E-03
 -2.29995781E-01  2.50816275E-02  2.42778462E-02 -2.34604315E-03  8.18233418E-03
  6.71992318E-04 -5.05959327E-03  1.04076043E-02  3.50928862E-04  8.50832425E-04
 -1.26445143E-01  2.61873293E-01  9.20893651E-02  1.04138480E-01 -2.02115126E-02
  2.47304867E-01  1.39329625E-02  4.03150619E-02 -1.90897342E-03 -1.10835701E-02
 -4.94760351E-03  6.08433166E-03 -5.93500170E-03 -3.57420492E-03 -3.26737021E-04
  2.81688341E-02 -6.51142190E-02 -1.01536190E-01  1.98281994E-01 -8.06274005E-02
 -8.51573392E-02 -4.89989789E-02  9.62929275E-02 -3.78013348E-02  9.34424310E-03
 -8.04631184E-04 -8.09460351E-03 -1.04905099E-02 -1.66699038E-03  1.26501047E-02
 -1.08182351E-01 -4.44060381E-02 -9.59266651E-02 -3.93323909E-02 -9.93439777E-02
 -3.63158790E-02  1.11986753E-01  3.97444651E-02  1.31755993E-01  4.85768857E-02
 -1.20106657E-01 -5.07373470E-02  1.96175567E-02 -3.78638107E-02  4.24440926E-02
  9.77483775E-02  1.22549503E-01 -6.39339455E-02  1.22835096E-02  3.82756769E-02
  4.66183448E-02  1.78087828E-03  2.67805569E-03 -5.47372346E-03  3.48563005E-03
  4.52292323E-03 -1.97881233E-03 -3.60014470E-02  7.09431814E-02 -1.49177896E-01
  1.25315225E-01  2.47999969E-01  9.03798172E-02 -6.03651752E-02  3.66543629E-02
  1.08922353E-01 -1.47690366E-02  2.14354286E-04  1.03616400E-02  9.67990777E-03
  8.51424299E-03  1.89224968E-03  3.72155032E-02 -8.45796433E-02  1.15903566E-01
 -2.25305821E-01  2.62017162E-01 -1.35774107E-01  5.24765576E-02 -1.07536633E-01
  1.42619352E-01 -7.84540845E-03  3.34095640E-03  1.88006930E-02  5.38956566E-03
 -7.45215683E-03 -1.01301455E-02 -1.34481004E-03  9.55273448E-03  3.31581296E-05
  3.11665573E-03 -1.01090848E-01 -6.49759466E-02  1.74111195E-01  1.09993174E-01
 -1.98145171E-02 -1.10969025E-02  1.75514615E-01  1.10963700E-01  2.23708555E-04
 -2.48217732E-03 -1.06934566E-01  1.82346307E-01 -1.80923654E-01  6.68063736E-03
 -4.25811132E-02  8.10630433E-02 -7.98005599E-02  2.53653060E-03  3.00900405E-03
 -5.80484998E-03 -3.99319089E-03 -3.73013180E-03  8.63236935E-03  4.83839515E-03
 -9.13603653E-03 -1.28893538E-01  2.28579796E-01 -2.01864244E-01 -1.93129163E-02
 -4.82549072E-02  1.05205614E-01 -1.00421322E-01 -5.76900721E-03 -6.03477252E-04
  9.90353082E-03  7.70763840E-03  4.68254601E-03 -1.04652579E-02 -2.33792496E-02
  4.41316427E-02  2.28631974E-01 -1.58973561E-01 -3.95001623E-02  1.07620433E-01
  1.28677790E-01 -8.56301202E-02 -2.38761994E-02 -1.45295799E-02  6.34580762E-03
 -7.20917895E-04  3.26033009E-04  1.36534246E-02 -1.16243429E-02 -1.48243690E-01
 -1.14567992E-01  1.08306474E-01  8.35011782E-02  4.01555448E-02  3.21893312E-02
 -3.68264442E-02 -2.14448794E-02  1.68778908E-01  1.17902211E-01  6.53104137E-02
  4.68317593E-02  7.71456064E-03 -1.28554409E-02  3.18151714E-01 -5.15078905E-03
 -1.50025184E-01 -2.73216793E-02  1.47444426E-01 -1.52083479E-02 -7.75513216E-02
  3.29363158E-04 -5.61449938E-03 -8.81553765E-05  1.40234480E-02  5.94204536E-04
  5.62154860E-03 -3.12329442E-02  7.04165195E-02 -1.94018937E-01 -1.74396373E-01
 -1.23003075E-01  6.97750824E-02 -8.69798803E-02 -6.92971701E-02 -3.87922265E-02
 -1.06824628E-02  7.79924645E-03 -5.61166173E-03  7.32200294E-03  5.92353037E-03
 -4.25872155E-03  3.56437676E-02 -7.97453755E-02 -1.37988598E-01 -2.30885227E-01
  4.25027576E-02 -1.39205784E-01 -9.76600919E-02 -1.36404326E-01  1.94041480E-02
  1.24246247E-02 -1.13796875E-03  1.16907907E-03  9.13793081E-03 -4.83485381E-03
 -1.08991914E-02 -8.59618223E-02 -5.98095514E-02 -1.72055327E-01 -1.29504795E-01
  6.13777455E-02  4.25646731E-02 -8.72549491E-02 -8.61641282E-02  1.69602607E-02
  9.59474003E-03  8.61456740E-02  6.13493867E-02 -5.57330962E-03  1.18870729E-02